Generated by Multiwfn
SP        RB3LYP                                              6-31G(d)
Number of atoms                            I               20
Charge                                     I                0
Multiplicity                               I                1
Number of electrons                        I              120
Number of alpha electrons                  I               60
Number of beta electrons                   I               60
Number of basis functions                  I              280
Number of independent functions            I              280
Atomic numbers                             I   N=          20
           6           6           6           6           6           6
           6           6           6           6           6           6
           6           6           6           6           6           6
           6           6
Nuclear charges                            R   N=          20
  6.00000000E+00  6.00000000E+00  6.00000000E+00  6.00000000E+00  6.00000000E+00
  6.00000000E+00  6.00000000E+00  6.00000000E+00  6.00000000E+00  6.00000000E+00
  6.00000000E+00  6.00000000E+00  6.00000000E+00  6.00000000E+00  6.00000000E+00
  6.00000000E+00  6.00000000E+00  6.00000000E+00  6.00000000E+00  6.00000000E+00
Current cartesian coordinates              R   N=          60
 -2.23563449E+00 -2.23022611E+00 -2.12080467E+00 -1.36562053E+00  0.00000000E+00
 -3.43898990E+00 -3.69657684E+00 -1.45206757E+00  0.00000000E+00 -3.69657684E+00
  1.45206757E+00  0.00000000E+00 -2.23563449E+00  2.23022611E+00 -2.12080467E+00
 -2.23563449E+00 -2.23022611E+00  2.12080467E+00 -1.36562053E+00  0.00000000E+00
  3.43898990E+00 -2.23563449E+00  2.23022611E+00  2.12080467E+00  0.00000000E+00
 -3.73209704E+00  1.32495695E+00  2.23563449E+00 -2.23022611E+00  2.12080467E+00
  1.36562053E+00  0.00000000E+00  3.43898990E+00  0.00000000E+00 -3.73209704E+00
 -1.32495695E+00  2.23563449E+00 -2.23022611E+00 -2.12080467E+00  3.69657684E+00
 -1.45206757E+00  0.00000000E+00  1.36562053E+00  0.00000000E+00 -3.43898990E+00
  2.23563449E+00  2.23022611E+00 -2.12080467E+00  3.69657684E+00  1.45206757E+00
  0.00000000E+00  2.23563449E+00  2.23022611E+00  2.12080467E+00  0.00000000E+00
  3.73209704E+00  1.32495695E+00  0.00000000E+00  3.73209704E+00 -1.32495695E+00
Translation vectors                        R   N=           0
Number of contracted shells                I              120
Number of primitive shells                 I              240
Highest angular momentum                   I                2
Largest degree of contraction              I                5
Shell types                                I   N=         120
           0           0           0           1           1          -2
           0           0           0           1           1          -2
           0           0           0           1           1          -2
           0           0           0           1           1          -2
           0           0           0           1           1          -2
           0           0           0           1           1          -2
           0           0           0           1           1          -2
           0           0           0           1           1          -2
           0           0           0           1           1          -2
           0           0           0           1           1          -2
           0           0           0           1           1          -2
           0           0           0           1           1          -2
           0           0           0           1           1          -2
           0           0           0           1           1          -2
           0           0           0           1           1          -2
           0           0           0           1           1          -2
           0           0           0           1           1          -2
           0           0           0           1           1          -2
           0           0           0           1           1          -2
           0           0           0           1           1          -2
Number of primitives per shell             I   N=         120
           5           1           1           3           1           1
           5           1           1           3           1           1
           5           1           1           3           1           1
           5           1           1           3           1           1
           5           1           1           3           1           1
           5           1           1           3           1           1
           5           1           1           3           1           1
           5           1           1           3           1           1
           5           1           1           3           1           1
           5           1           1           3           1           1
           5           1           1           3           1           1
           5           1           1           3           1           1
           5           1           1           3           1           1
           5           1           1           3           1           1
           5           1           1           3           1           1
           5           1           1           3           1           1
           5           1           1           3           1           1
           5           1           1           3           1           1
           5           1           1           3           1           1
           5           1           1           3           1           1
Shell to atom map                          I   N=         120
           1           1           1           1           1           1
           2           2           2           2           2           2
           3           3           3           3           3           3
           4           4           4           4           4           4
           5           5           5           5           5           5
           6           6           6           6           6           6
           7           7           7           7           7           7
           8           8           8           8           8           8
           9           9           9           9           9           9
          10          10          10          10          10          10
          11          11          11          11          11          11
          12          12          12          12          12          12
          13          13          13          13          13          13
          14          14          14          14          14          14
          15          15          15          15          15          15
          16          16          16          16          16          16
          17          17          17          17          17          17
          18          18          18          18          18          18
          19          19          19          19          19          19
          20          20          20          20          20          20
Primitive exponents                        R   N=         240
  1.23840169E+03  1.86290050E+02  4.22511763E+01  1.16765579E+01  3.59305065E+00
  4.02451474E-01  1.30901827E-01  9.46809706E+00  2.01035451E+00  5.47710047E-01
  1.52686138E-01  8.00000000E-01  1.23840169E+03  1.86290050E+02  4.22511763E+01
  1.16765579E+01  3.59305065E+00  4.02451474E-01  1.30901827E-01  9.46809706E+00
  2.01035451E+00  5.47710047E-01  1.52686138E-01  8.00000000E-01  1.23840169E+03
  1.86290050E+02  4.22511763E+01  1.16765579E+01  3.59305065E+00  4.02451474E-01
  1.30901827E-01  9.46809706E+00  2.01035451E+00  5.47710047E-01  1.52686138E-01
  8.00000000E-01  1.23840169E+03  1.86290050E+02  4.22511763E+01  1.16765579E+01
  3.59305065E+00  4.02451474E-01  1.30901827E-01  9.46809706E+00  2.01035451E+00
  5.47710047E-01  1.52686138E-01  8.00000000E-01  1.23840169E+03  1.86290050E+02
  4.22511763E+01  1.16765579E+01  3.59305065E+00  4.02451474E-01  1.30901827E-01
  9.46809706E+00  2.01035451E+00  5.47710047E-01  1.52686138E-01  8.00000000E-01
  1.23840169E+03  1.86290050E+02  4.22511763E+01  1.16765579E+01  3.59305065E+00
  4.02451474E-01  1.30901827E-01  9.46809706E+00  2.01035451E+00  5.47710047E-01
  1.52686138E-01  8.00000000E-01  1.23840169E+03  1.86290050E+02  4.22511763E+01
  1.16765579E+01  3.59305065E+00  4.02451474E-01  1.30901827E-01  9.46809706E+00
  2.01035451E+00  5.47710047E-01  1.52686138E-01  8.00000000E-01  1.23840169E+03
  1.86290050E+02  4.22511763E+01  1.16765579E+01  3.59305065E+00  4.02451474E-01
  1.30901827E-01  9.46809706E+00  2.01035451E+00  5.47710047E-01  1.52686138E-01
  8.00000000E-01  1.23840169E+03  1.86290050E+02  4.22511763E+01  1.16765579E+01
  3.59305065E+00  4.02451474E-01  1.30901827E-01  9.46809706E+00  2.01035451E+00
  5.47710047E-01  1.52686138E-01  8.00000000E-01  1.23840169E+03  1.86290050E+02
  4.22511763E+01  1.16765579E+01  3.59305065E+00  4.02451474E-01  1.30901827E-01
  9.46809706E+00  2.01035451E+00  5.47710047E-01  1.52686138E-01  8.00000000E-01
  1.23840169E+03  1.86290050E+02  4.22511763E+01  1.16765579E+01  3.59305065E+00
  4.02451474E-01  1.30901827E-01  9.46809706E+00  2.01035451E+00  5.47710047E-01
  1.52686138E-01  8.00000000E-01  1.23840169E+03  1.86290050E+02  4.22511763E+01
  1.16765579E+01  3.59305065E+00  4.02451474E-01  1.30901827E-01  9.46809706E+00
  2.01035451E+00  5.47710047E-01  1.52686138E-01  8.00000000E-01  1.23840169E+03
  1.86290050E+02  4.22511763E+01  1.16765579E+01  3.59305065E+00  4.02451474E-01
  1.30901827E-01  9.46809706E+00  2.01035451E+00  5.47710047E-01  1.52686138E-01
  8.00000000E-01  1.23840169E+03  1.86290050E+02  4.22511763E+01  1.16765579E+01
  3.59305065E+00  4.02451474E-01  1.30901827E-01  9.46809706E+00  2.01035451E+00
  5.47710047E-01  1.52686138E-01  8.00000000E-01  1.23840169E+03  1.86290050E+02
  4.22511763E+01  1.16765579E+01  3.59305065E+00  4.02451474E-01  1.30901827E-01
  9.46809706E+00  2.01035451E+00  5.47710047E-01  1.52686138E-01  8.00000000E-01
  1.23840169E+03  1.86290050E+02  4.22511763E+01  1.16765579E+01  3.59305065E+00
  4.02451474E-01  1.30901827E-01  9.46809706E+00  2.01035451E+00  5.47710047E-01
  1.52686138E-01  8.00000000E-01  1.23840169E+03  1.86290050E+02  4.22511763E+01
  1.16765579E+01  3.59305065E+00  4.02451474E-01  1.30901827E-01  9.46809706E+00
  2.01035451E+00  5.47710047E-01  1.52686138E-01  8.00000000E-01  1.23840169E+03
  1.86290050E+02  4.22511763E+01  1.16765579E+01  3.59305065E+00  4.02451474E-01
  1.30901827E-01  9.46809706E+00  2.01035451E+00  5.47710047E-01  1.52686138E-01
  8.00000000E-01  1.23840169E+03  1.86290050E+02  4.22511763E+01  1.16765579E+01
  3.59305065E+00  4.02451474E-01  1.30901827E-01  9.46809706E+00  2.01035451E+00
  5.47710047E-01  1.52686138E-01  8.00000000E-01  1.23840169E+03  1.86290050E+02
  4.22511763E+01  1.16765579E+01  3.59305065E+00  4.02451474E-01  1.30901827E-01
  9.46809706E+00  2.01035451E+00  5.47710047E-01  1.52686138E-01  8.00000000E-01
Contraction coefficients                   R   N=         240
  5.51736504E-03  4.10888285E-02  1.82253821E-01  4.68284594E-01  4.45758173E-01
  1.00000000E+00  1.00000000E+00  5.68883320E-02  3.12940593E-01  7.60650165E-01
  1.00000000E+00  1.00000000E+00  5.51736504E-03  4.10888285E-02  1.82253821E-01
  4.68284594E-01  4.45758173E-01  1.00000000E+00  1.00000000E+00  5.68883320E-02
  3.12940593E-01  7.60650165E-01  1.00000000E+00  1.00000000E+00  5.51736504E-03
  4.10888285E-02  1.82253821E-01  4.68284594E-01  4.45758173E-01  1.00000000E+00
  1.00000000E+00  5.68883320E-02  3.12940593E-01  7.60650165E-01  1.00000000E+00
  1.00000000E+00  5.51736504E-03  4.10888285E-02  1.82253821E-01  4.68284594E-01
  4.45758173E-01  1.00000000E+00  1.00000000E+00  5.68883320E-02  3.12940593E-01
  7.60650165E-01  1.00000000E+00  1.00000000E+00  5.51736504E-03  4.10888285E-02
  1.82253821E-01  4.68284594E-01  4.45758173E-01  1.00000000E+00  1.00000000E+00
  5.68883320E-02  3.12940593E-01  7.60650165E-01  1.00000000E+00  1.00000000E+00
  5.51736504E-03  4.10888285E-02  1.82253821E-01  4.68284594E-01  4.45758173E-01
  1.00000000E+00  1.00000000E+00  5.68883320E-02  3.12940593E-01  7.60650165E-01
  1.00000000E+00  1.00000000E+00  5.51736504E-03  4.10888285E-02  1.82253821E-01
  4.68284594E-01  4.45758173E-01  1.00000000E+00  1.00000000E+00  5.68883320E-02
  3.12940593E-01  7.60650165E-01  1.00000000E+00  1.00000000E+00  5.51736504E-03
  4.10888285E-02  1.82253821E-01  4.68284594E-01  4.45758173E-01  1.00000000E+00
  1.00000000E+00  5.68883320E-02  3.12940593E-01  7.60650165E-01  1.00000000E+00
  1.00000000E+00  5.51736504E-03  4.10888285E-02  1.82253821E-01  4.68284594E-01
  4.45758173E-01  1.00000000E+00  1.00000000E+00  5.68883320E-02  3.12940593E-01
  7.60650165E-01  1.00000000E+00  1.00000000E+00  5.51736504E-03  4.10888285E-02
  1.82253821E-01  4.68284594E-01  4.45758173E-01  1.00000000E+00  1.00000000E+00
  5.68883320E-02  3.12940593E-01  7.60650165E-01  1.00000000E+00  1.00000000E+00
  5.51736504E-03  4.10888285E-02  1.82253821E-01  4.68284594E-01  4.45758173E-01
  1.00000000E+00  1.00000000E+00  5.68883320E-02  3.12940593E-01  7.60650165E-01
  1.00000000E+00  1.00000000E+00  5.51736504E-03  4.10888285E-02  1.82253821E-01
  4.68284594E-01  4.45758173E-01  1.00000000E+00  1.00000000E+00  5.68883320E-02
  3.12940593E-01  7.60650165E-01  1.00000000E+00  1.00000000E+00  5.51736504E-03
  4.10888285E-02  1.82253821E-01  4.68284594E-01  4.45758173E-01  1.00000000E+00
  1.00000000E+00  5.68883320E-02  3.12940593E-01  7.60650165E-01  1.00000000E+00
  1.00000000E+00  5.51736504E-03  4.10888285E-02  1.82253821E-01  4.68284594E-01
  4.45758173E-01  1.00000000E+00  1.00000000E+00  5.68883320E-02  3.12940593E-01
  7.60650165E-01  1.00000000E+00  1.00000000E+00  5.51736504E-03  4.10888285E-02
  1.82253821E-01  4.68284594E-01  4.45758173E-01  1.00000000E+00  1.00000000E+00
  5.68883320E-02  3.12940593E-01  7.60650165E-01  1.00000000E+00  1.00000000E+00
  5.51736504E-03  4.10888285E-02  1.82253821E-01  4.68284594E-01  4.45758173E-01
  1.00000000E+00  1.00000000E+00  5.68883320E-02  3.12940593E-01  7.60650165E-01
  1.00000000E+00  1.00000000E+00  5.51736504E-03  4.10888285E-02  1.82253821E-01
  4.68284594E-01  4.45758173E-01  1.00000000E+00  1.00000000E+00  5.68883320E-02
  3.12940593E-01  7.60650165E-01  1.00000000E+00  1.00000000E+00  5.51736504E-03
  4.10888285E-02  1.82253821E-01  4.68284594E-01  4.45758173E-01  1.00000000E+00
  1.00000000E+00  5.68883320E-02  3.12940593E-01  7.60650165E-01  1.00000000E+00
  1.00000000E+00  5.51736504E-03  4.10888285E-02  1.82253821E-01  4.68284594E-01
  4.45758173E-01  1.00000000E+00  1.00000000E+00  5.68883320E-02  3.12940593E-01
  7.60650165E-01  1.00000000E+00  1.00000000E+00  5.51736504E-03  4.10888285E-02
  1.82253821E-01  4.68284594E-01  4.45758173E-01  1.00000000E+00  1.00000000E+00
  5.68883320E-02  3.12940593E-01  7.60650165E-01  1.00000000E+00  1.00000000E+00
Coordinates of each shell                  R   N=         360
 -2.23563449E+00 -2.23022611E+00 -2.12080467E+00 -2.23563449E+00 -2.23022611E+00
 -2.12080467E+00 -2.23563449E+00 -2.23022611E+00 -2.12080467E+00 -2.23563449E+00
 -2.23022611E+00 -2.12080467E+00 -2.23563449E+00 -2.23022611E+00 -2.12080467E+00
 -2.23563449E+00 -2.23022611E+00 -2.12080467E+00 -1.36562053E+00  0.00000000E+00
 -3.43898990E+00 -1.36562053E+00  0.00000000E+00 -3.43898990E+00 -1.36562053E+00
  0.00000000E+00 -3.43898990E+00 -1.36562053E+00  0.00000000E+00 -3.43898990E+00
 -1.36562053E+00  0.00000000E+00 -3.43898990E+00 -1.36562053E+00  0.00000000E+00
 -3.43898990E+00 -3.69657684E+00 -1.45206757E+00  0.00000000E+00 -3.69657684E+00
 -1.45206757E+00  0.00000000E+00 -3.69657684E+00 -1.45206757E+00  0.00000000E+00
 -3.69657684E+00 -1.45206757E+00  0.00000000E+00 -3.69657684E+00 -1.45206757E+00
  0.00000000E+00 -3.69657684E+00 -1.45206757E+00  0.00000000E+00 -3.69657684E+00
  1.45206757E+00  0.00000000E+00 -3.69657684E+00  1.45206757E+00  0.00000000E+00
 -3.69657684E+00  1.45206757E+00  0.00000000E+00 -3.69657684E+00  1.45206757E+00
  0.00000000E+00 -3.69657684E+00  1.45206757E+00  0.00000000E+00 -3.69657684E+00
  1.45206757E+00  0.00000000E+00 -2.23563449E+00  2.23022611E+00 -2.12080467E+00
 -2.23563449E+00  2.23022611E+00 -2.12080467E+00 -2.23563449E+00  2.23022611E+00
 -2.12080467E+00 -2.23563449E+00  2.23022611E+00 -2.12080467E+00 -2.23563449E+00
  2.23022611E+00 -2.12080467E+00 -2.23563449E+00  2.23022611E+00 -2.12080467E+00
 -2.23563449E+00 -2.23022611E+00  2.12080467E+00 -2.23563449E+00 -2.23022611E+00
  2.12080467E+00 -2.23563449E+00 -2.23022611E+00  2.12080467E+00 -2.23563449E+00
 -2.23022611E+00  2.12080467E+00 -2.23563449E+00 -2.23022611E+00  2.12080467E+00
 -2.23563449E+00 -2.23022611E+00  2.12080467E+00 -1.36562053E+00  0.00000000E+00
  3.43898990E+00 -1.36562053E+00  0.00000000E+00  3.43898990E+00 -1.36562053E+00
  0.00000000E+00  3.43898990E+00 -1.36562053E+00  0.00000000E+00  3.43898990E+00
 -1.36562053E+00  0.00000000E+00  3.43898990E+00 -1.36562053E+00  0.00000000E+00
  3.43898990E+00 -2.23563449E+00  2.23022611E+00  2.12080467E+00 -2.23563449E+00
  2.23022611E+00  2.12080467E+00 -2.23563449E+00  2.23022611E+00  2.12080467E+00
 -2.23563449E+00  2.23022611E+00  2.12080467E+00 -2.23563449E+00  2.23022611E+00
  2.12080467E+00 -2.23563449E+00  2.23022611E+00  2.12080467E+00  0.00000000E+00
 -3.73209704E+00  1.32495695E+00  0.00000000E+00 -3.73209704E+00  1.32495695E+00
  0.00000000E+00 -3.73209704E+00  1.32495695E+00  0.00000000E+00 -3.73209704E+00
  1.32495695E+00  0.00000000E+00 -3.73209704E+00  1.32495695E+00  0.00000000E+00
 -3.73209704E+00  1.32495695E+00  2.23563449E+00 -2.23022611E+00  2.12080467E+00
  2.23563449E+00 -2.23022611E+00  2.12080467E+00  2.23563449E+00 -2.23022611E+00
  2.12080467E+00  2.23563449E+00 -2.23022611E+00  2.12080467E+00  2.23563449E+00
 -2.23022611E+00  2.12080467E+00  2.23563449E+00 -2.23022611E+00  2.12080467E+00
  1.36562053E+00  0.00000000E+00  3.43898990E+00  1.36562053E+00  0.00000000E+00
  3.43898990E+00  1.36562053E+00  0.00000000E+00  3.43898990E+00  1.36562053E+00
  0.00000000E+00  3.43898990E+00  1.36562053E+00  0.00000000E+00  3.43898990E+00
  1.36562053E+00  0.00000000E+00  3.43898990E+00  0.00000000E+00 -3.73209704E+00
 -1.32495695E+00  0.00000000E+00 -3.73209704E+00 -1.32495695E+00  0.00000000E+00
 -3.73209704E+00 -1.32495695E+00  0.00000000E+00 -3.73209704E+00 -1.32495695E+00
  0.00000000E+00 -3.73209704E+00 -1.32495695E+00  0.00000000E+00 -3.73209704E+00
 -1.32495695E+00  2.23563449E+00 -2.23022611E+00 -2.12080467E+00  2.23563449E+00
 -2.23022611E+00 -2.12080467E+00  2.23563449E+00 -2.23022611E+00 -2.12080467E+00
  2.23563449E+00 -2.23022611E+00 -2.12080467E+00  2.23563449E+00 -2.23022611E+00
 -2.12080467E+00  2.23563449E+00 -2.23022611E+00 -2.12080467E+00  3.69657684E+00
 -1.45206757E+00  0.00000000E+00  3.69657684E+00 -1.45206757E+00  0.00000000E+00
  3.69657684E+00 -1.45206757E+00  0.00000000E+00  3.69657684E+00 -1.45206757E+00
  0.00000000E+00  3.69657684E+00 -1.45206757E+00  0.00000000E+00  3.69657684E+00
 -1.45206757E+00  0.00000000E+00  1.36562053E+00  0.00000000E+00 -3.43898990E+00
  1.36562053E+00  0.00000000E+00 -3.43898990E+00  1.36562053E+00  0.00000000E+00
 -3.43898990E+00  1.36562053E+00  0.00000000E+00 -3.43898990E+00  1.36562053E+00
  0.00000000E+00 -3.43898990E+00  1.36562053E+00  0.00000000E+00 -3.43898990E+00
  2.23563449E+00  2.23022611E+00 -2.12080467E+00  2.23563449E+00  2.23022611E+00
 -2.12080467E+00  2.23563449E+00  2.23022611E+00 -2.12080467E+00  2.23563449E+00
  2.23022611E+00 -2.12080467E+00  2.23563449E+00  2.23022611E+00 -2.12080467E+00
  2.23563449E+00  2.23022611E+00 -2.12080467E+00  3.69657684E+00  1.45206757E+00
  0.00000000E+00  3.69657684E+00  1.45206757E+00  0.00000000E+00  3.69657684E+00
  1.45206757E+00  0.00000000E+00  3.69657684E+00  1.45206757E+00  0.00000000E+00
  3.69657684E+00  1.45206757E+00  0.00000000E+00  3.69657684E+00  1.45206757E+00
  0.00000000E+00  2.23563449E+00  2.23022611E+00  2.12080467E+00  2.23563449E+00
  2.23022611E+00  2.12080467E+00  2.23563449E+00  2.23022611E+00  2.12080467E+00
  2.23563449E+00  2.23022611E+00  2.12080467E+00  2.23563449E+00  2.23022611E+00
  2.12080467E+00  2.23563449E+00  2.23022611E+00  2.12080467E+00  0.00000000E+00
  3.73209704E+00  1.32495695E+00  0.00000000E+00  3.73209704E+00  1.32495695E+00
  0.00000000E+00  3.73209704E+00  1.32495695E+00  0.00000000E+00  3.73209704E+00
  1.32495695E+00  0.00000000E+00  3.73209704E+00  1.32495695E+00  0.00000000E+00
  3.73209704E+00  1.32495695E+00  0.00000000E+00  3.73209704E+00 -1.32495695E+00
  0.00000000E+00  3.73209704E+00 -1.32495695E+00  0.00000000E+00  3.73209704E+00
 -1.32495695E+00  0.00000000E+00  3.73209704E+00 -1.32495695E+00  0.00000000E+00
  3.73209704E+00 -1.32495695E+00  0.00000000E+00  3.73209704E+00 -1.32495695E+00
Virial Ratio                               R      2.000000000000000E+00
Total Energy                               R      0.000000000000000E+00
Alpha Orbital Energies                     R   N=         280
 -1.02638915E+01 -1.02638626E+01 -1.02636584E+01 -1.02636404E+01 -1.02605226E+01
 -1.02603967E+01 -1.02603676E+01 -1.02603645E+01 -1.02603585E+01 -1.02603058E+01
 -1.02602903E+01 -1.02601783E+01 -1.02421942E+01 -1.02421460E+01 -1.02421413E+01
 -1.02421175E+01 -1.02416451E+01 -1.02416380E+01 -1.02412091E+01 -1.02411919E+01
 -1.02029193E+00 -9.35455235E-01 -9.35446934E-01 -9.34853084E-01 -8.08233589E-01
 -8.05565325E-01 -8.00009475E-01 -7.94224315E-01 -7.88402074E-01 -6.68626181E-01
 -6.44722966E-01 -6.43778964E-01 -6.38507253E-01 -6.28059920E-01 -6.24170412E-01
 -6.15750619E-01 -5.03921303E-01 -5.02198706E-01 -4.99720075E-01 -4.91999939E-01
 -4.85569409E-01 -4.66493074E-01 -4.61441762E-01 -4.55843813E-01 -4.44221785E-01
 -4.37894586E-01 -4.16905862E-01 -4.16617303E-01 -4.16521772E-01 -3.90182031E-01
 -3.86587022E-01 -3.82162595E-01 -3.74946937E-01 -3.74017855E-01 -2.97849902E-01
 -2.91033338E-01 -2.77688846E-01 -2.70925087E-01 -2.58710380E-01 -1.98037748E-01
 -1.27874444E-01 -1.26876287E-01 -1.25701138E-01 -7.67710577E-02 -7.38281820E-02
 -6.65154632E-02 -4.12464747E-02 -3.90301538E-02 -2.75259820E-02 -1.84286295E-02
  6.91302098E-02  7.63652969E-02  1.01436268E-01  1.70165578E-01  2.00547827E-01
  2.05641448E-01  2.06294490E-01  2.06517044E-01  2.14306192E-01  2.15059777E-01
  2.17288641E-01  2.17614130E-01  2.18583103E-01  2.18643580E-01  2.72219515E-01
  3.63926448E-01  3.67208460E-01  3.69070772E-01  3.73817501E-01  3.76090943E-01
  3.76165659E-01  3.78053541E-01  3.79479958E-01  3.88671976E-01  4.04490948E-01
  4.09806741E-01  4.10391326E-01  4.11505549E-01  4.20496490E-01  4.21239285E-01
  4.21696215E-01  4.22964449E-01  4.24436266E-01  4.24537732E-01  4.27145928E-01
  4.30216911E-01  4.52192654E-01  4.59677631E-01  4.63674393E-01  4.64422458E-01
  4.64567362E-01  4.95657093E-01  4.99571085E-01  5.16449756E-01  5.17451571E-01
  5.21988150E-01  5.33114114E-01  5.35422985E-01  5.41228153E-01  5.51205881E-01
  5.51873996E-01  5.51977731E-01  5.53785514E-01  5.62378623E-01  5.78811631E-01
  5.81694017E-01  5.82091513E-01  5.84549442E-01  5.85829514E-01  5.97421650E-01
  6.00085397E-01  6.21880063E-01  6.36119953E-01  6.42969679E-01  6.53053592E-01
  6.60567141E-01  6.70249151E-01  7.02633733E-01  7.05360111E-01  7.16783516E-01
  7.17024766E-01  7.17471657E-01  7.19968466E-01  7.20638906E-01  7.35986620E-01
  7.40871953E-01  7.62329339E-01  7.67482135E-01  7.71444619E-01  7.76621918E-01
  7.88747823E-01  7.97899862E-01  8.17764122E-01  8.19045680E-01  8.29217599E-01
  8.30506152E-01  8.35328059E-01  8.39225337E-01  8.40975823E-01  8.62297297E-01
  8.64162988E-01  8.67590857E-01  8.68138933E-01  8.68464983E-01  8.94055580E-01
  8.98171194E-01  9.31569321E-01  9.33523760E-01  9.35866678E-01  9.84132152E-01
  9.84309604E-01  9.88838019E-01  1.28073374E+00  1.54489037E+00  1.54779696E+00
  1.57076017E+00  1.60088395E+00  1.60883079E+00  1.61059555E+00  1.61454479E+00
  1.61639302E+00  1.62351572E+00  1.63128029E+00  1.63144583E+00  1.64587927E+00
  1.65563223E+00  1.66111440E+00  1.67241988E+00  1.67550954E+00  1.68223324E+00
  1.68504260E+00  1.68806238E+00  1.69079010E+00  1.71866697E+00  1.75433085E+00
  1.75461143E+00  1.76170598E+00  1.77041965E+00  1.78270043E+00  1.78449176E+00
  1.79779781E+00  1.79911685E+00  1.80276583E+00  1.82110200E+00  1.82617104E+00
  1.82633732E+00  1.83056505E+00  1.83255051E+00  1.83354329E+00  1.83949217E+00
  1.84378063E+00  1.84917907E+00  1.86219266E+00  1.87459176E+00  1.88548539E+00
  1.89618088E+00  1.89710063E+00  1.89871534E+00  1.90512154E+00  1.91078575E+00
  1.92045872E+00  1.94897435E+00  1.95019490E+00  1.96665547E+00  1.97917427E+00
  2.05228382E+00  2.06217884E+00  2.07302288E+00  2.09187553E+00  2.09746741E+00
  2.14130351E+00  2.18027492E+00  2.26068685E+00  2.34468968E+00  2.35066656E+00
  2.38003520E+00  2.39208132E+00  2.39827664E+00  2.41212054E+00  2.41367628E+00
  2.42468672E+00  2.43156298E+00  2.49662658E+00  2.49959128E+00  2.50025976E+00
  2.50106689E+00  2.51419062E+00  2.51467621E+00  2.51765990E+00  2.52133010E+00
  2.52267685E+00  2.53646980E+00  2.54450446E+00  2.54828794E+00  2.56554549E+00
  2.61290559E+00  2.64639486E+00  2.65668567E+00  2.67152466E+00  2.67282485E+00
  2.69551743E+00  2.70742059E+00  2.70863974E+00  2.70949672E+00  2.71454745E+00
  2.71702123E+00  2.71723774E+00  2.72016078E+00  2.72233986E+00  2.73185382E+00
  2.74451779E+00  2.76481690E+00  2.91271779E+00  2.93841276E+00  2.95788722E+00
  2.96889037E+00  2.97488233E+00  2.99450197E+00  2.99450210E+00  2.99540179E+00
Alpha MO coefficients                      R   N=       78400
  1.35226527E-02 -3.37114085E-03  2.94533889E-02 -3.77869274E-04 -4.48180078E-04
  1.55506972E-04  4.21210849E-03  1.02870914E-02  1.48483872E-03  3.52118500E-05
  1.90124993E-04  6.31349576E-04  4.26771754E-04 -8.26566070E-05  4.93700444E-01
  2.89373626E-02 -5.22635408E-02  4.73252129E-04  0.00000000E+00  1.93801038E-03
  1.59366673E-03  0.00000000E+00 -1.70739802E-02  1.78362395E-04  1.68491282E-04
  0.00000000E+00 -6.12018931E-04  0.00000000E+00  0.00000000E+00  0.00000000E+00
  0.00000000E+00  0.00000000E+00  0.00000000E+00  3.79195893E-04  0.00000000E+00
  0.00000000E+00  3.47513314E-03  0.00000000E+00  4.51082180E-05 -9.86843170E-05
  0.00000000E+00  0.00000000E+00  0.00000000E+00  0.00000000E+00  0.00000000E+00
  0.00000000E+00  0.00000000E+00  3.79195893E-04  0.00000000E+00  0.00000000E+00
  3.47513314E-03  0.00000000E+00  4.51082180E-05  9.86843170E-05  0.00000000E+00
  0.00000000E+00  1.35226527E-02 -3.37114085E-03  2.94533889E-02 -3.77869274E-04
  4.48180078E-04  1.55506972E-04  4.21210849E-03 -1.02870914E-02  1.48483872E-03
  3.52118500E-05  1.90124993E-04 -6.31349576E-04  4.26771754E-04  8.26566070E-05
 -1.35226527E-02  3.37114085E-03 -2.94533889E-02  3.77869274E-04  4.48180078E-04
  1.55506972E-04 -4.21210849E-03 -1.02870914E-02  1.48483872E-03 -3.52118500E-05
  1.90124993E-04  6.31349576E-04 -4.26771754E-04  8.26566070E-05 -4.93700444E-01
 -2.89373626E-02  5.22635408E-02 -4.73252129E-04  0.00000000E+00  1.93801038E-03
 -1.59366673E-03  0.00000000E+00 -1.70739802E-02 -1.78362395E-04  1.68491282E-04
  0.00000000E+00  6.12018931E-04  0.00000000E+00 -1.35226527E-02  3.37114085E-03
 -2.94533889E-02  3.77869274E-04 -4.48180078E-04  1.55506972E-04 -4.21210849E-03
  1.02870914E-02  1.48483872E-03 -3.52118500E-05  1.90124993E-04 -6.31349576E-04
 -4.26771754E-04 -8.26566070E-05  1.11674554E-03  4.45979121E-03 -1.49559681E-02
  0.00000000E+00  6.18867962E-04  1.80053143E-04  0.00000000E+00 -4.04427860E-03
  6.32711513E-03 -1.01452297E-04  0.00000000E+00 -4.07809830E-05  1.69602955E-04
  0.00000000E+00 -1.35226527E-02  3.37114085E-03 -2.94533889E-02 -3.77869274E-04
  4.48180078E-04  1.55506972E-04  4.21210849E-03 -1.02870914E-02  1.48483872E-03
 -3.52118500E-05 -1.90124993E-04  6.31349576E-04 -4.26771754E-04 -8.26566070E-05
 -4.93700444E-01 -2.89373626E-02  5.22635408E-02  4.73252129E-04  0.00000000E+00
  1.93801038E-03  1.59366673E-03  0.00000000E+00 -1.70739802E-02 -1.78362395E-04
 -1.68491282E-04  0.00000000E+00  6.12018931E-04  0.00000000E+00 -1.11674554E-03
 -4.45979121E-03  1.49559681E-02  0.00000000E+00 -6.18867962E-04  1.80053143E-04
  0.00000000E+00  4.04427860E-03  6.32711513E-03  1.01452297E-04  0.00000000E+00
 -4.07809830E-05 -1.69602955E-04  0.00000000E+00  1.35226527E-02 -3.37114085E-03
  2.94533889E-02  3.77869274E-04 -4.48180078E-04  1.55506972E-04 -4.21210849E-03
  1.02870914E-02  1.48483872E-03  3.52118500E-05 -1.90124993E-04  6.31349576E-04
  4.26771754E-04  8.26566070E-05  0.00000000E+00  0.00000000E+00  0.00000000E+00
  0.00000000E+00  0.00000000E+00  3.79195893E-04  0.00000000E+00  0.00000000E+00
  3.47513314E-03  0.00000000E+00 -4.51082180E-05 -9.86843170E-05  0.00000000E+00
  0.00000000E+00  4.93700444E-01  2.89373626E-02 -5.22635408E-02 -4.73252129E-04
  0.00000000E+00  1.93801038E-03 -1.59366673E-03  0.00000000E+00 -1.70739802E-02
  1.78362395E-04 -1.68491282E-04  0.00000000E+00 -6.12018931E-04  0.00000000E+00
  1.35226527E-02 -3.37114085E-03  2.94533889E-02  3.77869274E-04  4.48180078E-04
  1.55506972E-04 -4.21210849E-03 -1.02870914E-02  1.48483872E-03  3.52118500E-05
 -1.90124993E-04 -6.31349576E-04  4.26771754E-04 -8.26566070E-05  0.00000000E+00
  0.00000000E+00  0.00000000E+00  0.00000000E+00  0.00000000E+00  3.79195893E-04
  0.00000000E+00  0.00000000E+00  3.47513314E-03  0.00000000E+00 -4.51082180E-05
  9.86843170E-05  0.00000000E+00  0.00000000E+00 -1.35226527E-02  3.37114085E-03
 -2.94533889E-02 -3.77869274E-04 -4.48180078E-04  1.55506972E-04  4.21210849E-03
  1.02870914E-02  1.48483872E-03 -3.52118500E-05 -1.90124993E-04 -6.31349576E-04
 -4.26771754E-04  8.26566070E-05  1.11674554E-03  4.45979121E-03 -1.49559681E-02