
                                 *****************
                                 * O   R   C   A *
                                 *****************

                                            #,                                       
                                            ###                                      
                                            ####                                     
                                            #####                                    
                                            ######                                   
                                           ########,                                 
                                     ,,################,,,,,                         
                               ,,#################################,,                 
                          ,,##########################################,,             
                       ,#########################################, ''#####,          
                    ,#############################################,,   '####,        
                  ,##################################################,,,,####,       
                ,###########''''           ''''###############################       
              ,#####''   ,,,,##########,,,,          '''####'''          '####       
            ,##' ,,,,###########################,,,                        '##       
           ' ,,###''''                  '''############,,,                           
         ,,##''                                '''############,,,,        ,,,,,,###''
      ,#''                                            '''#######################'''  
     '                                                          ''''####''''         
             ,#######,   #######,   ,#######,      ##                                
            ,#'     '#,  ##    ##  ,#'     '#,    #''#        ,####,    ,#,          
            ##       ##  ##   ,#'  ##            #'  '#       #'       ,# #          
            ##       ##  #######   ##           ,######,      #####,      #          
            '#,     ,#'  ##    ##  '#,     ,#' ,#      #,     #,   #      #          
             '#######'   ##     ##  '#######'  #'      '#     '####' #    #          



                #########################################################
                #                        -***-                          #
                #          Department of theory and spectroscopy        #
                #                                                       #
                #                      Frank Neese                      #
                #                                                       #
                #     Directorship, Architecture, Infrastructure        #
                #                    SHARK, DRIVERS                     #
                #        Core code/Algorithms in most modules           #
                #                                                       #
                #        Max Planck Institute fuer Kohlenforschung      #
                #                Kaiser Wilhelm Platz 1                 #
                #                 D-45470 Muelheim/Ruhr                 #
                #                      Germany                          #
                #                                                       #
                #                  All rights reserved                  #
                #                        -***-                          #
                #########################################################


                         Program Version 6.1.0  -  RELEASE   -
                                (GIT: $679e74b$)
                          ($2025-06-10 18:02:51 +0200$)


 With contributions from (in alphabetic order):
[Max-Planck-Institut fuer Kohlenforschung]                               
  Daniel Aravena         : Magnetic Suceptibility                        
  Michael Atanasov       : Ab Initio Ligand Field Theory (pilot matlab implementation)
  Alexander A. Auer      : GIAO ZORA, VPT2 properties, NMR spectrum      
  Ute Becker             : All parallelization in ORCA, NUMFREQ, NUMCALC 
  Giovanni Bistoni       : ED, misc. LED, open-shell LED, HFLD           
  Dmytro Bykov           : pre 5.0 version of the SCF Hessian            
  Marcos Casanova-Páez   : Triplet and SCS-CIS(D). UHF-(DLPNO)-IP/EA/STEOM-CCSD. UHF-CVS-IP/STEOM-CCSD   
  Vijay G. Chilkuri      : MRCI spin determinant printing, contributions to CSF-ICE 
  Pauline Colinet        : FMM embedding                                 
  Dipayan Datta          : RHF DLPNO-CCSD density                        
  Achintya Kumar Dutta   : EOM-CC, STEOM-CC                              
  Nicolas Foglia         : Exact transition moments, OPA infrastructure, MCD improvements    
  Dmitry Ganyushin       : Spin-Orbit,Spin-Spin,Magnetic field MRCI      
  Miquel Garcia-Rates    : C-PCM and meta-GGA Hessian, CCSD/C-PCM, Gaussian charge scheme 
  Tiago L. C. Gouveia    : GS-ROHF, GS-ROCIS                             
  Yang Guo               : DLPNO-NEVPT2, F12-NEVPT2, CIM, IAO-localization        
  Andreas Hansen         : Spin unrestricted coupled pair/coupled cluster methods 
  Ingolf Harden          : AUTO-CI MPn and infrastructure                
  Benjamin Helmich-Paris : MC-RPA, TRAH-(SCF,CASSCF), AVAS, COSX integrals, SCF dyn. polar., MC-PDFT, srDFT 
  Lee Huntington         : MR-EOM, pCC                                   
  Robert Izsak           : Overlap fitted RIJCOSX, COSX-SCS-MP3, EOM     
  Riya Kayal             : Wick's Theorem for AUTO-CI, AUTO-CI UHF-CCSDT 
  Emily Kempfer          : AUTO-CI RHF CISDT and CCSDT, approximate NEVPT4
  Christian Kollmar      : KDIIS, OOCD, Brueckner-CCSD(T), CCSD density, CASPT2, CASPT2-K, improved NEVPT2 
  Axel Koslowski         : Symmetry handling                             
  Simone Kossmann        : meta-GGA functionals, TD-DFT gradient, OOMP2, (MP2 Hessian; deprecated post 5.0) 
  Lucas Lang             : DCDCAS, Hyperfine gauge corrections, ICE-SOC+SSC
  Marvin Lechner         : AUTO-CI (C++ implementation), FIC-MRCC        
  Spencer Leger          : CASSCF response                               
  Dagmar Lenk            : GEPOL surface, SMD, ORCA-2-JSON               
  Dimitrios Liakos       : Extrapolation schemes; Compound Job, Property file
  Dimitrios Manganas     : Further ROCIS development; embedding schemes. LFT, Crystal Embedding 
  Dimitrios Pantazis     : SARC Basis sets                               
  Anastasios Papadopoulos: AUTO-CI, single reference methods and gradients 
  Taras Petrenko         : pre 6.0 DFT Hessian and TD-DFT gradient,  ECA, NRVS 
  Petra Pikulova         : Analytic Raman intensities                    
  Peter Pinski           : DLPNO-MP2, DLPNO-MP2 Gradient                 
  Shashank Vittal Rao    : ES-AILFT, MagRelax                            
  Christoph Reimann      : Effective Core Potentials                     
  Marius Retegan         : Local ZFS, SOC                                
  Christoph Riplinger    : Optimizer, TS searches, QM/MM, DLPNO-CCSD(T), (RO)-DLPNO pert. Triples 
  Michael Roemelt        : Original ROCIS implementation, recursive CI coupling coefficients
  Masaaki Saitow         : Open-shell DLPNO-CCSD energy and density      
  Barbara Sandhoefer     : DKH picture change effects                    
  Yorick L. A. Schmerwitz: GMF and freeze-and-release deltaSCF, NEB S-IDPP initial path                    
  Kantharuban Sivalingam : CASSCF convergence/infrastructure, NEVPT2, NEVPT3, NEVPT4(SD), FIC-MRCI and CEPA variants
  Bernardo de Souza      : ESD, SOC TD-DFT                               
  Georgi L. Stoychev     : AutoAux, RI-MP2 NMR, DLPNO-MP2 response, X2C  
  Van Anh Tran           : RI-MP2 g-tensors                              
  Willem Van den Heuvel  : Paramagnetic NMR                              
  Zikuan Wang            : NOTCH, Electric field optimization            
  Frank Wennmohs         : Technical directorship and infrastructure     
  Hang Xu                : AUTO-CI-Response properties                   
                                                                         
[FACCTs GmbH]                                                            
  Markus Bursch, Nicolas Foglia, Miquel Garcia-Rates, Ingolf Harden, Hagen Neugebauer, Anastasios Papadopoulos, 
  Christoph Riplinger, Bernardo de Souza, Georgi L. Stoychev                                                    
                                                                 
  APM, various basis sets, CI-OPT, improved COSX, DLPNO-Multilevel,           
  DOCKER, DRACO, updates on ESD, Fragmentator, GOAT, IRC, LR-CPCM, L-BFGS, MBIS, meta-GGA TD-DFT gradient, ML-optimized integration grids, 
  MM, NACMEs, nearIR, NEB, NEB-TS, NL-DFT gradient (VV10), 2- and 3-layer-ONIOM, interface openCOSMO-RS, QMMM,   
  Crystal-QMMM, RESP, rigid body optimization, SF, symmetry and pop. for TD-DFT, various functionals, SOLVATOR                                   
                                                                         
[Other institutions]                                                     
  V. Asgeirsson          : NEB                                           
  Christoph Bannwarth    : sTDA-DFT, sTD-DFT, PBEh-3c, B97-3c, D3        
  Giovanni Bistoni       : ETS/NOCV, ADLD/ADEX, COVALED                  
  Martin Brehm           : Molecular dynamics                            
  Ronald Cardenas        : ETS/NOCV                                      
  Martina Colucci        : COVALED                                       
  Sebastian Ehlert       : rSCAN, r2SCAN, r2SCAN-3c, D4, dhf basis sets  
  Marvin Friede          : D4 for Fr, Ra, Ac-Lr                          
  Lars Goerigk           : TD-DFT with DH, B97 family of functionals     
  Stefan Grimme          : VdW corrections, initial TS optimization, DFT functionals, gCP, sTDA/sTD-DF 
  Waldemar Hujo          : DFT-NL                                        
  H. Jonsson             : NEB                                           
  Holger Kruse           : gCP                                           
  Marcel Mueller         : wB97X-3c, vDZP basis set                      
  Hagen Neugebauer       : wr2SCAN, Native XTB                           
  Gianluca Regni         : ADLD/ADEX                                     
  Tobias Risthaus        : pre 6.0 range-separated hybrid DFT and stability analysis
  Lukas Wittmann         : regularized MP2, r2SCAN double-hybrids, wr2SCAN        
                                                                         
We gratefully acknowledge several colleagues who have allowed us to      
interface, adapt or use parts of their codes:                            
  Ed Valeev, F. Pavosevic, A. Kumar             : LibInt (2-el integral package), F12 methods 
  Garnet Chan, S. Sharma, J. Yang, R. Olivares  : DMRG                   
  Ulf Ekstrom                                   : XCFun DFT Library      
  Mihaly Kallay                                 : mrcc  (arbitrary order and MRCC methods)
  Frank Weinhold                                : gennbo (NPA and NBO analysis)           
  Simon Mueller                                 : openCOSMO-RS                            
  Christopher J. Cramer and Donald G. Truhlar   : smd solvation model                     
  S Lehtola, MJT Oliveira, MAL Marques          : LibXC Library                           
  Liviu Ungur et al                             : ANISO software                          


 Your calculation uses the libint2 library for the computation of 2-el integrals
 For citations please refer to: http://libint.valeyev.net

 Your ORCA version has been built with support for libXC version: 7.0.0
 For citations please refer to: https://libxc.gitlab.io

 This ORCA versions uses:
   CBLAS   interface :  Fast vector & matrix operations
   LAPACKE interface :  Fast linear algebra routines
   SCALAPACK package :  Parallel linear algebra routines
   Shared memory     :  Shared parallel matrices
   BLAS/LAPACK       :  OpenBLAS 0.3.29  USE64BITINT DYNAMIC_ARCH NO_AFFINITY Cooperlake SINGLE_THREADED
        Core in use  :  Cooperlake
   Copyright (c) 2011-2014, The OpenBLAS Project


  ***********************************
  * Starting time: Fri Nov  7 12:44:45 2025
  * Host name:     rc13222
  * Process ID:    19241
  * Working dir.:  /scratch/bourrete/c60-Ih_p_3872716
  ***********************************

NOTE: MaxCore=8000 MB was set to SCF,MP2,MDCI,CIPSI,MRCI,RASCI and CIS
      => If you want to overwrite this, your respective input block should be placed after the MaxCore statement


***************************************
The coordinates will be read from file: C60-Ih.xyz
***************************************


XCFun DFT library Copyright 2009-2010 Ulf Ekstrom and contributors.
See http://admol.org/xcfun for more information.
This is free software; see the source code for copying conditions.
There is ABSOLUTELY NO WARRANTY; not even for MERCHANTABILITY or FITNESS FOR A PARTICULAR PURPOSE.
For details see the documentation.
Scientific users of this library should cite U. Ekstrom, L. Visscher, R. Bast, A. J. Thorvaldsen and K. Ruud;
J.Chem.Theor.Comp. 2010, DOI: 10.1021/ct100117s
XCFun Version 0.99 

Warning: RI is on but no J-basis has been assigned. Assigning Def2/J (nothing to worry about!)
================================================================================

----- Orbital basis set information -----
Your calculation utilizes the basis: def2-TZVPPD
   F. Weigend and R. Ahlrichs, Phys. Chem. Chem. Phys. 7, 3297 (2005).
   D. Rappoport and F. Furche, J. Chem. Phys. 133, 134105 (2010)
   D. Rappoport, J. Chem. Phys. 155, 124102 (2021).

----- AuxJ basis set information -----
Your calculation utilizes the auxiliary basis: def2/J
   H-Rn: F. Weigend, Phys. Chem. Chem. Phys. 8, 1057 (2006).
   Fr-Lr: K. Eichkorn, F. Weigend, O. Treutler, R. Ahlrichs; Theor. Chem. Acc. 97, 119 (1997).

================================================================================
                                        WARNINGS
                       Please study these warnings very carefully!
================================================================================


================================================================================
                                       INPUT FILE
================================================================================
NAME = POL_c60-Ih_p.inp
|  1> ! CAM-B3LYP def2-TZVPPD DefGrid3  TightSCF
|  2> # DFT functional:   CAM-B3LYP
|  3> # Basis:            def2-TZVPPD
|  4> %maxcore 8000
|  5> %pal nprocs 32
|  6> end
|  7> %base "POL_c60-Ih_p"
|  8> 
|  9> %scf
| 10>       Guess         MORead
| 11>       MOInp         "C60-Ih.gbw"
| 12>       sthresh       1e-7    # Should be between 1e-5 and 1e-8
| 13> end
| 14> %elprop
| 15>       Dipole      True
| 16>       DipoleAtom  True
| 17>       Polar       True
| 18>       PolarAtom   True
| 19>       freq_i      0.00
| 20> end
| 21> *xyzfile 0 1 C60-Ih.xyz
| 22> 
| 23>                          ****END OF INPUT****
================================================================================

                       ****************************
                       * Single Point Calculation *
                       ****************************

---------------------------------
CARTESIAN COORDINATES (ANGSTROEM)
---------------------------------
  C      2.296228   -0.724472    2.591367
  C      3.020700   -1.172220    1.419147
  C      1.172220   -1.419147    3.020700
  C      2.591367   -2.296228    0.724472
  C      2.591367   -2.296228   -0.724472
  C      3.468448   -0.000000    0.694676
  C      3.468448    0.000000   -0.694676
  C      3.020700   -1.172220   -1.419147
  C     -0.000000    0.694676    3.468448
  C      1.172220    1.419147    3.020700
  C      0.000000   -0.694676    3.468448
  C      2.296228    0.724472    2.591367
  C      3.020700    1.172220    1.419147
  C      0.724472    2.591367    2.296228
  C      1.419147    3.020700    1.172220
  C      2.591367    2.296228    0.724472
  C     -2.296228   -0.724472    2.591367
  C     -2.296228    0.724472    2.591367
  C     -1.172220   -1.419147    3.020700
  C     -1.172220    1.419147    3.020700
  C     -0.724472    2.591367    2.296228
  C     -3.020700    1.172220    1.419147
  C     -2.591367    2.296228    0.724472
  C     -1.419147    3.020700    1.172220
  C     -1.419147   -3.020700    1.172220
  C     -2.591367   -2.296228    0.724472
  C     -0.724472   -2.591367    2.296228
  C     -3.020700   -1.172220    1.419147
  C     -3.468448    0.000000    0.694676
  C     -2.591367   -2.296228   -0.724472
  C     -3.020700   -1.172220   -1.419147
  C     -3.468448   -0.000000   -0.694676
  C      1.419147   -3.020700    1.172220
  C      0.694676   -3.468448    0.000000
  C      0.724472   -2.591367    2.296228
  C     -0.694676   -3.468448   -0.000000
  C     -1.419147   -3.020700   -1.172220
  C      1.419147   -3.020700   -1.172220
  C      0.724472   -2.591367   -2.296228
  C     -0.724472   -2.591367   -2.296228
  C     -2.296228    0.724472   -2.591367
  C     -2.296228   -0.724472   -2.591367
  C     -1.172220   -1.419147   -3.020700
  C     -1.172220    1.419147   -3.020700
  C     -1.419147    3.020700   -1.172220
  C     -2.591367    2.296228   -0.724472
  C     -3.020700    1.172220   -1.419147
  C     -0.724472    2.591367   -2.296228
  C      1.419147    3.020700   -1.172220
  C      0.694676    3.468448   -0.000000
  C     -0.694676    3.468448    0.000000
  C      0.724472    2.591367   -2.296228
  C      2.296228    0.724472   -2.591367
  C      3.020700    1.172220   -1.419147
  C      2.591367    2.296228   -0.724472
  C      1.172220    1.419147   -3.020700
  C     -0.000000   -0.694676   -3.468448
  C      1.172220   -1.419147   -3.020700
  C      2.296228   -0.724472   -2.591367
  C      0.000000    0.694676   -3.468448

----------------------------
CARTESIAN COORDINATES (A.U.)
----------------------------
  NO LB      ZA    FRAG     MASS         X           Y           Z
   0 C     6.0000    0    12.011    4.339243   -1.369053    4.896973
   1 C     6.0000    0    12.011    5.708295   -2.215174    2.681799
   2 C     6.0000    0    12.011    2.215174   -2.681799    5.708295
   3 C     6.0000    0    12.011    4.896973   -4.339243    1.369053
   4 C     6.0000    0    12.011    4.896973   -4.339243   -1.369053
   5 C     6.0000    0    12.011    6.554417   -0.000000    1.312747
   6 C     6.0000    0    12.011    6.554417    0.000000   -1.312747
   7 C     6.0000    0    12.011    5.708295   -2.215174   -2.681799
   8 C     6.0000    0    12.011   -0.000000    1.312747    6.554417
   9 C     6.0000    0    12.011    2.215174    2.681799    5.708295
  10 C     6.0000    0    12.011    0.000000   -1.312747    6.554417
  11 C     6.0000    0    12.011    4.339243    1.369053    4.896973
  12 C     6.0000    0    12.011    5.708295    2.215174    2.681799
  13 C     6.0000    0    12.011    1.369053    4.896973    4.339243
  14 C     6.0000    0    12.011    2.681799    5.708295    2.215174
  15 C     6.0000    0    12.011    4.896973    4.339243    1.369053
  16 C     6.0000    0    12.011   -4.339243   -1.369053    4.896973
  17 C     6.0000    0    12.011   -4.339243    1.369053    4.896973
  18 C     6.0000    0    12.011   -2.215174   -2.681799    5.708295
  19 C     6.0000    0    12.011   -2.215174    2.681799    5.708295
  20 C     6.0000    0    12.011   -1.369053    4.896973    4.339243
  21 C     6.0000    0    12.011   -5.708295    2.215174    2.681799
  22 C     6.0000    0    12.011   -4.896973    4.339243    1.369053
  23 C     6.0000    0    12.011   -2.681799    5.708295    2.215174
  24 C     6.0000    0    12.011   -2.681799   -5.708295    2.215174
  25 C     6.0000    0    12.011   -4.896973   -4.339243    1.369053
  26 C     6.0000    0    12.011   -1.369053   -4.896973    4.339243
  27 C     6.0000    0    12.011   -5.708295   -2.215174    2.681799
  28 C     6.0000    0    12.011   -6.554417    0.000000    1.312747
  29 C     6.0000    0    12.011   -4.896973   -4.339243   -1.369053
  30 C     6.0000    0    12.011   -5.708295   -2.215174   -2.681799
  31 C     6.0000    0    12.011   -6.554417   -0.000000   -1.312747
  32 C     6.0000    0    12.011    2.681799   -5.708295    2.215174
  33 C     6.0000    0    12.011    1.312747   -6.554417    0.000000
  34 C     6.0000    0    12.011    1.369053   -4.896973    4.339243
  35 C     6.0000    0    12.011   -1.312747   -6.554417   -0.000000
  36 C     6.0000    0    12.011   -2.681799   -5.708295   -2.215174
  37 C     6.0000    0    12.011    2.681799   -5.708295   -2.215174
  38 C     6.0000    0    12.011    1.369053   -4.896973   -4.339243
  39 C     6.0000    0    12.011   -1.369053   -4.896973   -4.339243
  40 C     6.0000    0    12.011   -4.339243    1.369053   -4.896973
  41 C     6.0000    0    12.011   -4.339243   -1.369053   -4.896973
  42 C     6.0000    0    12.011   -2.215174   -2.681799   -5.708295
  43 C     6.0000    0    12.011   -2.215174    2.681799   -5.708295
  44 C     6.0000    0    12.011   -2.681799    5.708295   -2.215174
  45 C     6.0000    0    12.011   -4.896973    4.339243   -1.369053
  46 C     6.0000    0    12.011   -5.708295    2.215174   -2.681799
  47 C     6.0000    0    12.011   -1.369053    4.896973   -4.339243
  48 C     6.0000    0    12.011    2.681799    5.708295   -2.215174
  49 C     6.0000    0    12.011    1.312747    6.554417   -0.000000
  50 C     6.0000    0    12.011   -1.312747    6.554417    0.000000
  51 C     6.0000    0    12.011    1.369053    4.896973   -4.339243
  52 C     6.0000    0    12.011    4.339243    1.369053   -4.896973
  53 C     6.0000    0    12.011    5.708295    2.215174   -2.681799
  54 C     6.0000    0    12.011    4.896973    4.339243   -1.369053
  55 C     6.0000    0    12.011    2.215174    2.681799   -5.708295
  56 C     6.0000    0    12.011   -0.000000   -1.312747   -6.554417
  57 C     6.0000    0    12.011    2.215174   -2.681799   -5.708295
  58 C     6.0000    0    12.011    4.339243   -1.369053   -4.896973
  59 C     6.0000    0    12.011    0.000000    1.312747   -6.554417

--------------------------------
INTERNAL COORDINATES (ANGSTROEM)
--------------------------------
 C      0   0   0     0.000000000000     0.00000000     0.00000000
 C      1   0   0     1.448943035182     0.00000000     0.00000000
 C      1   2   0     1.389351280837   120.00000000     0.00000000
 C      2   1   3     1.389351280837   120.00000000     0.00000000
 C      4   2   1     1.448943035182   120.00000000   138.18968510
 C      2   1   3     1.448943035182   108.00000000   142.62263186
 C      6   2   1     1.389351280837   120.00000000   217.37736814
 C      5   4   2     1.389351280837   120.00000000     0.00000000
 C      3   1   2     2.458215564705    90.69449557   221.81031490
 C      9   3   1     1.448943035182    89.30550443     0.00000000
 C      9   3   1     1.389351280837    30.69449557   180.00000000
 C     10   9   3     1.389351280837   120.00000000     0.00000000
 C     12  10   9     1.448943035182   120.00000000   138.18968510
 C     10   9   3     1.448943035182   108.00000000   142.62263186
 C     14  10   9     1.389351280837   120.00000000   217.37736814
 C     13  12  10     1.389351280837   120.00000000     0.00000000
 C     11   9   3     2.458215564705    90.69449557   221.81031490
 C     17  11   9     1.448943035182    89.30550443     0.00000000
 C     17  11   9     1.389351280837    30.69449557   180.00000000
 C     18  17  11     1.389351280837   120.00000000     0.00000000
 C     14  10   9     1.448943035182   108.00000000     0.00000000
 C     18  17  11     1.448943035182   108.00000000   142.62263186
 C     22  18  17     1.389351280837   120.00000000   217.37736814
 C     21  14  10     1.389351280837   120.00000000   217.37736814
 C     19  17  11     2.458215564705    90.69449557   221.81031490
 C     25  19  17     1.448943035182    89.30550443     0.00000000
 C     25  19  17     1.389351280837    30.69449557   180.00000000
 C     26  25  19     1.389351280837   120.00000000     0.00000000
 C     28  26  25     1.448943035182   120.00000000   138.18968510
 C     26  25  19     1.448943035182   108.00000000   142.62263186
 C     30  26  25     1.389351280837   120.00000000   217.37736814
 C     29  28  26     1.389351280837   120.00000000     0.00000000
 C      4   2   1     1.448943035182   120.00000000     0.00000000
 C     33   4   2     1.448943035182   108.00000000   142.62263186
 C     33   4   2     1.389351280837   120.00000000     0.00000000
 C     34  33   4     1.389351280837   120.00000000   217.37736814
 C     30  26  25     1.448943035182   108.00000000     0.00000000
 C      5   4   2     1.448943035182   108.00000000   217.37736814
 C     38   5   4     1.389351280837   120.00000000   142.62263186
 C     37  30  26     1.389351280837   120.00000000   217.37736814
 C     32  29  28     2.344439078687   144.00000000   259.18768304
 C     41  32  29     1.448943035182    72.00000000   116.56505118
 C     42  41  32     1.389351280837   120.00000000   217.37736814
 C     41  32  29     1.389351280837   144.00000000     0.00000000
 C     23  22  18     2.344439078687   144.00000000   100.81231696
 C     45  23  22     1.448943035182    36.00000000    63.43494882
 C     46  45  23     1.389351280837   120.00000000   217.37736814
 C     45  23  22     1.389351280837   144.00000000     0.00000000
 C     15  14  10     2.344439078687   144.00000000   100.81231696
 C     15  14  10     1.448943035182   120.00000000   138.18968510
 C     50  15  14     1.389351280837   120.00000000     0.00000000
 C     49  15  14     1.389351280837   144.00000000     0.00000000
 C      8   5   4     2.344439078687   144.00000000   259.18768304
 C     53   8   5     1.448943035182    72.00000000   116.56505118
 C     54  53   8     1.389351280837   120.00000000   217.37736814
 C     53   8   5     1.389351280837   144.00000000     0.00000000
 C     43  42  41     1.448943035182   120.00000000     0.00000000
 C     39  38   5     1.448943035182   120.00000000     0.00000000
 C     58  39  38     1.389351280837   120.00000000     0.00000000
 C     57  43  42     1.389351280837   120.00000000     0.00000000

---------------------------
INTERNAL COORDINATES (A.U.)
---------------------------
 C      0   0   0     0.000000000000     0.00000000     0.00000000
 C      1   0   0     2.738105520147     0.00000000     0.00000000
 C      1   2   0     2.625493424595   120.00000000     0.00000000
 C      2   1   3     2.625493424595   120.00000000     0.00000000
 C      4   2   1     2.738105520147   120.00000000   138.18968510
 C      2   1   3     2.738105520147   108.00000000   142.62263186
 C      6   2   1     2.625493424595   120.00000000   217.37736814
 C      5   4   2     2.625493424595   120.00000000     0.00000000
 C      3   1   2     4.645354195434    90.69449557   221.81031490
 C      9   3   1     2.738105520147    89.30550443     0.00000000
 C      9   3   1     2.625493424595    30.69449557   180.00000000
 C     10   9   3     2.625493424595   120.00000000     0.00000000
 C     12  10   9     2.738105520147   120.00000000   138.18968510
 C     10   9   3     2.738105520147   108.00000000   142.62263186
 C     14  10   9     2.625493424595   120.00000000   217.37736814
 C     13  12  10     2.625493424595   120.00000000     0.00000000
 C     11   9   3     4.645354195434    90.69449557   221.81031490
 C     17  11   9     2.738105520147    89.30550443     0.00000000
 C     17  11   9     2.625493424595    30.69449557   180.00000000
 C     18  17  11     2.625493424595   120.00000000     0.00000000
 C     14  10   9     2.738105520147   108.00000000     0.00000000
 C     18  17  11     2.738105520147   108.00000000   142.62263186
 C     22  18  17     2.625493424595   120.00000000   217.37736814
 C     21  14  10     2.625493424595   120.00000000   217.37736814
 C     19  17  11     4.645354195434    90.69449557   221.81031490
 C     25  19  17     2.738105520147    89.30550443     0.00000000
 C     25  19  17     2.625493424595    30.69449557   180.00000000
 C     26  25  19     2.625493424595   120.00000000     0.00000000
 C     28  26  25     2.738105520147   120.00000000   138.18968510
 C     26  25  19     2.738105520147   108.00000000   142.62263186
 C     30  26  25     2.625493424595   120.00000000   217.37736814
 C     29  28  26     2.625493424595   120.00000000     0.00000000
 C      4   2   1     2.738105520147   120.00000000     0.00000000
 C     33   4   2     2.738105520147   108.00000000   142.62263186
 C     33   4   2     2.625493424595   120.00000000     0.00000000
 C     34  33   4     2.625493424595   120.00000000   217.37736814
 C     30  26  25     2.738105520147   108.00000000     0.00000000
 C      5   4   2     2.738105520147   108.00000000   217.37736814
 C     38   5   4     2.625493424595   120.00000000   142.62263186
 C     37  30  26     2.625493424595   120.00000000   217.37736814
 C     32  29  28     4.430347796381   144.00000000   259.18768304
 C     41  32  29     2.738105520147    72.00000000   116.56505118
 C     42  41  32     2.625493424595   120.00000000   217.37736814
 C     41  32  29     2.625493424595   144.00000000     0.00000000
 C     23  22  18     4.430347796381   144.00000000   100.81231696
 C     45  23  22     2.738105520147    36.00000000    63.43494882
 C     46  45  23     2.625493424595   120.00000000   217.37736814
 C     45  23  22     2.625493424595   144.00000000     0.00000000
 C     15  14  10     4.430347796381   144.00000000   100.81231696
 C     15  14  10     2.738105520147   120.00000000   138.18968510
 C     50  15  14     2.625493424595   120.00000000     0.00000000
 C     49  15  14     2.625493424595   144.00000000     0.00000000
 C      8   5   4     4.430347796381   144.00000000   259.18768304
 C     53   8   5     2.738105520147    72.00000000   116.56505118
 C     54  53   8     2.625493424595   120.00000000   217.37736814
 C     53   8   5     2.625493424595   144.00000000     0.00000000
 C     43  42  41     2.738105520147   120.00000000     0.00000000
 C     39  38   5     2.738105520147   120.00000000     0.00000000
 C     58  39  38     2.625493424595   120.00000000     0.00000000
 C     57  43  42     2.625493424595   120.00000000     0.00000000

---------------------
BASIS SET INFORMATION
---------------------
There are 1 groups of distinct atoms

 Group   1 Type C   : 12s6p3d1f contracted to 6s3p3d1f pattern {621111/411/111/1}

Atom   0C    basis set group =>   1
Atom   1C    basis set group =>   1
Atom   2C    basis set group =>   1
Atom   3C    basis set group =>   1
Atom   4C    basis set group =>   1
Atom   5C    basis set group =>   1
Atom   6C    basis set group =>   1
Atom   7C    basis set group =>   1
Atom   8C    basis set group =>   1
Atom   9C    basis set group =>   1
Atom  10C    basis set group =>   1
Atom  11C    basis set group =>   1
Atom  12C    basis set group =>   1
Atom  13C    basis set group =>   1
Atom  14C    basis set group =>   1
Atom  15C    basis set group =>   1
Atom  16C    basis set group =>   1
Atom  17C    basis set group =>   1
Atom  18C    basis set group =>   1
Atom  19C    basis set group =>   1
Atom  20C    basis set group =>   1
Atom  21C    basis set group =>   1
Atom  22C    basis set group =>   1
Atom  23C    basis set group =>   1
Atom  24C    basis set group =>   1
Atom  25C    basis set group =>   1
Atom  26C    basis set group =>   1
Atom  27C    basis set group =>   1
Atom  28C    basis set group =>   1
Atom  29C    basis set group =>   1
Atom  30C    basis set group =>   1
Atom  31C    basis set group =>   1
Atom  32C    basis set group =>   1
Atom  33C    basis set group =>   1
Atom  34C    basis set group =>   1
Atom  35C    basis set group =>   1
Atom  36C    basis set group =>   1
Atom  37C    basis set group =>   1
Atom  38C    basis set group =>   1
Atom  39C    basis set group =>   1
Atom  40C    basis set group =>   1
Atom  41C    basis set group =>   1
Atom  42C    basis set group =>   1
Atom  43C    basis set group =>   1
Atom  44C    basis set group =>   1
Atom  45C    basis set group =>   1
Atom  46C    basis set group =>   1
Atom  47C    basis set group =>   1
Atom  48C    basis set group =>   1
Atom  49C    basis set group =>   1
Atom  50C    basis set group =>   1
Atom  51C    basis set group =>   1
Atom  52C    basis set group =>   1
Atom  53C    basis set group =>   1
Atom  54C    basis set group =>   1
Atom  55C    basis set group =>   1
Atom  56C    basis set group =>   1
Atom  57C    basis set group =>   1
Atom  58C    basis set group =>   1
Atom  59C    basis set group =>   1
---------------------------------
AUXILIARY/J BASIS SET INFORMATION
---------------------------------
There are 1 groups of distinct atoms

 Group   1 Type C   : 12s5p4d2f1g contracted to 6s4p3d1f1g pattern {711111/2111/211/2/1}

Atom   0C    basis set group =>   1
Atom   1C    basis set group =>   1
Atom   2C    basis set group =>   1
Atom   3C    basis set group =>   1
Atom   4C    basis set group =>   1
Atom   5C    basis set group =>   1
Atom   6C    basis set group =>   1
Atom   7C    basis set group =>   1
Atom   8C    basis set group =>   1
Atom   9C    basis set group =>   1
Atom  10C    basis set group =>   1
Atom  11C    basis set group =>   1
Atom  12C    basis set group =>   1
Atom  13C    basis set group =>   1
Atom  14C    basis set group =>   1
Atom  15C    basis set group =>   1
Atom  16C    basis set group =>   1
Atom  17C    basis set group =>   1
Atom  18C    basis set group =>   1
Atom  19C    basis set group =>   1
Atom  20C    basis set group =>   1
Atom  21C    basis set group =>   1
Atom  22C    basis set group =>   1
Atom  23C    basis set group =>   1
Atom  24C    basis set group =>   1
Atom  25C    basis set group =>   1
Atom  26C    basis set group =>   1
Atom  27C    basis set group =>   1
Atom  28C    basis set group =>   1
Atom  29C    basis set group =>   1
Atom  30C    basis set group =>   1
Atom  31C    basis set group =>   1
Atom  32C    basis set group =>   1
Atom  33C    basis set group =>   1
Atom  34C    basis set group =>   1
Atom  35C    basis set group =>   1
Atom  36C    basis set group =>   1
Atom  37C    basis set group =>   1
Atom  38C    basis set group =>   1
Atom  39C    basis set group =>   1
Atom  40C    basis set group =>   1
Atom  41C    basis set group =>   1
Atom  42C    basis set group =>   1
Atom  43C    basis set group =>   1
Atom  44C    basis set group =>   1
Atom  45C    basis set group =>   1
Atom  46C    basis set group =>   1
Atom  47C    basis set group =>   1
Atom  48C    basis set group =>   1
Atom  49C    basis set group =>   1
Atom  50C    basis set group =>   1
Atom  51C    basis set group =>   1
Atom  52C    basis set group =>   1
Atom  53C    basis set group =>   1
Atom  54C    basis set group =>   1
Atom  55C    basis set group =>   1
Atom  56C    basis set group =>   1
Atom  57C    basis set group =>   1
Atom  58C    basis set group =>   1
Atom  59C    basis set group =>   1


           ************************************************************
           *        Program running with 32 parallel MPI-processes    *
           *              working on a common directory               *
           ************************************************************
------------------------------------------------------------------------------
                             ORCA STARTUP CALCULATIONS
                           -- RI-GTO INTEGRALS CHOSEN --
------------------------------------------------------------------------------
------------------------------------------------------------------------------
                   ___                                                        
                  /   \      - P O W E R E D   B Y -                         
                 /     \                                                     
                 |  |  |   _    _      __       _____    __    __             
                 |  |  |  | |  | |    /  \     |  _  \  |  |  /  |          
                  \  \/   | |  | |   /    \    | | | |  |  | /  /          
                 / \  \   | |__| |  /  /\  \   | |_| |  |  |/  /          
                |  |  |   |  __  | /  /__\  \  |    /   |      \           
                |  |  |   | |  | | |   __   |  |    \   |  |\   \          
                \     /   | |  | | |  |  |  |  | |\  \  |  | \   \       
                 \___/    |_|  |_| |__|  |__|  |_| \__\ |__|  \__/        
                                                                              
                      - O R C A' S   B I G   F R I E N D -                    
                                      &                                       
                       - I N T E G R A L  F E E D E R -                       
                                                                              
 v1 FN, 2020, v2 2021, v3 2022-2024                                           
------------------------------------------------------------------------------


----------------------
SHARK INTEGRAL PACKAGE
----------------------

Number of atoms                             ...     60
Number of basis functions                   ...   2220
Number of shells                            ...    780
Maximum angular momentum                    ...      3
Integral batch strategy                     ... SHARK/LIBINT Hybrid
RI-J (if used) integral strategy            ... SPLIT-RIJ (Revised 2003 algorithm where possible)
Printlevel                                  ...      1
Contraction scheme used                     ... SEGMENTED contraction
Prescreening option                         ... SCHWARTZ
   Thresh                                   ... 2.500e-11
   Tcut                                     ... 2.500e-12
   Tpresel                                  ... 2.500e-12 
Coulomb Range Separation                    ... NOT USED
Exchange Range Separation                   ... Long Range
   Mu parameter                             ... 3.300e-01
   Scaling (regular/separated)              ... 1.900e-01 4.600e-01
Robust (split-)RI terms used:
  metric    (central integrals)             ... YES
  density   (r.h.s.  integrals)             ... YES
  potential (l.h.s.  integrals)             ... YES
Multipole approximations                    ... NOT USED
Finite Nucleus Model                        ... NOT USED
CABS basis                                  ... NOT available
Auxiliary Coulomb fitting basis             ... AVAILABLE
   # of basis functions in Aux-J            ...   2940
   # of shells in Aux-J                     ...    900
   Maximum angular momentum in Aux-J        ...      4
Auxiliary J/K fitting basis                 ... NOT available
Auxiliary Correlation fitting basis         ... NOT available
Auxiliary 'external' fitting basis          ... NOT available

Checking pre-screening integrals            ... done (  0.0 sec) Dimension = 780
   => SHARK Basis and OBASIS are compatible. Storing Pre-screening
Shell pair information
Shell pair cut-off parameter TPreSel        ...   2.5e-12
Total number of shell pairs                 ...    304590
Shell pairs after pre-screening             ...    243592
Total number of primitive shell pairs       ...    873180
Primitive shell pairs kept                  ...    465006
          la=0 lb=0:  49470 shell pairs
          la=1 lb=0:  52632 shell pairs
          la=1 lb=1:  14550 shell pairs
          la=2 lb=0:  52232 shell pairs
          la=2 lb=1:  28680 shell pairs
          la=2 lb=2:  14254 shell pairs
          la=3 lb=0:  14160 shell pairs
          la=3 lb=1:   8400 shell pairs
          la=3 lb=2:   8280 shell pairs
          la=3 lb=3:    934 shell pairs

Checking whether 4 symmetric matrices of dimension 2220 fit in memory
:Max Core in MB      =   8000.00
 MB in use           =    296.68
 MB left             =   7703.32
 MB needed           =     75.24
 Data fit in memory  = YES
Calculating RI/J V-Matrix + Cholesky decomp.... done (  0.5 sec)
Calculating Nuclear repulsion               ... done (  0.0 sec) ENN=   8356.478156497727 Eh

Diagonalization of the overlap matrix:
Smallest eigenvalue                        ... 1.755e-10
Time for diagonalization                   ...    0.272 sec
Threshold for overlap eigenvalues          ... 1.000e-07
Number of eigenvalues below threshold      ... 33
Smallest eigenvalue above threshold        ... 1.040e-07

IMPORTANT:
Smallest eigenvalue of S below the DiffSThresh (1.000e-06) while
Thresh>1e-12 and/or TCut>1e-13! In order to avoid SCF convergence issues,
Thresh will be set to at least 1e-12 and TCut to at least 1e-13.
This can be turned off by adding %SCF DiffSThresh -1 END to the input.

Time for construction of square roots      ...    0.393 sec
Total time needed                          ...    0.713 sec

-------------------
DFT GRID GENERATION
-------------------

General Integration Accuracy     IntAcc      ... 4.959
Radial Grid Type                 RadialGrid  ... OptM3 with GC (2021)
Angular Grid (max. ang.)         AngularGrid ... 6 (Lebedev-590)
Angular grid pruning method      GridPruning ... 4 (adaptive)
Weight generation scheme         WeightScheme... mBecke (2022)
Basis function cutoff            BFCut       ... 1.0000e-11
Integration weight cutoff        WCut        ... 1.0000e-14
Partially contracted basis set               ... off
Rotationally invariant grid construction     ... off
Angular grids for H and He will be reduced by one unit
Diffuse basis detected: some atoms will have their outermost
                        angular grid increased by 1.

Total number of grid points                  ...   841608
Total number of batches                      ...    13198
Average number of points per batch           ...       63
Average number of grid points per atom       ...    14027

--------------------
COSX GRID GENERATION
--------------------

GRIDX 1
-------
General Integration Accuracy     IntAcc      ... 4.020
Radial Grid Type                 RadialGrid  ... OptM3 with GC (2021)
Angular Grid (max. ang.)         AngularGrid ... 2 (Lebedev-110)
Angular grid pruning method      GridPruning ... 4 (adaptive)
Weight generation scheme         WeightScheme... mBecke (2022)
Basis function cutoff            BFCut       ... 1.0000e-11
Integration weight cutoff        WCut        ... 1.0000e-14
Partially contracted basis set               ... on
Rotationally invariant grid construction     ... off
Angular grids for H and He will be reduced by one unit
Diffuse basis detected: some atoms will have their outermost
                        angular grid increased by 1.

Total number of grid points                  ...   110940
Total number of batches                      ...      900
Average number of points per batch           ...      123
Average number of grid points per atom       ...     1849
UseSFitting                                  ... on

GRIDX 2
-------
General Integration Accuracy     IntAcc      ... 4.338
Radial Grid Type                 RadialGrid  ... OptM3 with GC (2021)
Angular Grid (max. ang.)         AngularGrid ... 3 (Lebedev-194)
Angular grid pruning method      GridPruning ... 4 (adaptive)
Weight generation scheme         WeightScheme... mBecke (2022)
Basis function cutoff            BFCut       ... 1.0000e-11
Integration weight cutoff        WCut        ... 1.0000e-14
Partially contracted basis set               ... on
Rotationally invariant grid construction     ... off
Angular grids for H and He will be reduced by one unit
Diffuse basis detected: some atoms will have their outermost
                        angular grid increased by 1.

Total number of grid points                  ...   240876
Total number of batches                      ...     1920
Average number of points per batch           ...      125
Average number of grid points per atom       ...     4015
UseSFitting                                  ... on

GRIDX 3
-------
General Integration Accuracy     IntAcc      ... 4.871
Radial Grid Type                 RadialGrid  ... OptM3 with GC (2021)
Angular Grid (max. ang.)         AngularGrid ... 4 (Lebedev-302)
Angular grid pruning method      GridPruning ... 4 (adaptive)
Weight generation scheme         WeightScheme... mBecke (2022)
Basis function cutoff            BFCut       ... 1.0000e-11
Integration weight cutoff        WCut        ... 1.0000e-14
Partially contracted basis set               ... on
Rotationally invariant grid construction     ... off
Angular grids for H and He will be reduced by one unit
Diffuse basis detected: some atoms will have their outermost
                        angular grid increased by 1.

Total number of grid points                  ...   412512
Total number of batches                      ...     3252
Average number of points per batch           ...      126
Average number of grid points per atom       ...     6875
UseSFitting                                  ... on
Grids setup in  18.1 sec
Initializing property integral containers    ... done (  0.0 sec)

SHARK setup successfully completed in  24.4 seconds

Maximum memory used throughout the entire STARTUP-calculation: 439.5 MB


           ************************************************************
           *        Program running with 32 parallel MPI-processes    *
           *              working on a common directory               *
           ************************************************************
-------------------------------------------------------------------------------
                                 ORCA GUESS
                   Start orbitals & Density for SCF / CASSCF
-------------------------------------------------------------------------------

------------
SCF SETTINGS
------------
Hamiltonian:
 Density Functional     Method          .... DFT(GTOs)
 Exchange Functional    Exchange        .... WB88
 Correlation Functional Correlation     .... LYP
 LDA part of GGA corr.  LDAOpt          .... VWN-5
 Gradients option       PostSCFGGA      .... off
 Hybrid DFT is turned on
   Fraction HF Exchange ScalHFX         ....  0.190000
   Scaling of DF-GGA-X  ScalDFX         ....  0.350000
   Scaling of DF-GGA-C  ScalDFC         ....  0.810000
   Scaling of DF-LDA-C  ScalLDAC        ....  1.000000
   Perturbative correction              ....  0.000000
 Long-range corrected/Screened/Range-Separated Hybrid DFT is turned on
   Amount of maximum screened exact exchange              ....  0.460000
   Range separation parameter mu (erf(mu*r12)/r12)        ....  0.330000
 RI-approximation to the Coulomb term is turned on
   Number of AuxJ basis functions       .... 2940
   RIJ-COSX (HFX calculated with COS-X)).... on


General Settings:
 Integral files         IntName         .... POL_c60-Ih_p
 Hartree-Fock type      HFTyp           .... RHF
 Total Charge           Charge          ....    0
 Multiplicity           Mult            ....    1
 Number of Electrons    NEL             ....  360
 Basis Dimension        Dim             .... 2220
 Nuclear Repulsion      ENuc            ....   8356.4781564977 Eh

Convergence Acceleration:
 AO-DIIS                CNVDIIS         .... on
   Start iteration      DIISMaxIt       ....    12
   Startup error        DIISStart       ....  0.200000
   # of expansion vecs  DIISMaxEq       ....     5
   Bias factor          DIISBfac        ....   1.050
   Max. coefficient     DIISMaxC        ....  10.000
 MO-DIIS                CNVKDIIS        .... off
 Trust-Rad. Augm. Hess. CNVTRAH         .... auto
   Auto Start mean grad. ratio tolernc. ....  1.125000
   Auto Start start iteration           ....     1
   Auto Start num. interpolation iter.  ....    10
   Max. Number of Micro iterations      ....    24
   Max. Number of Macro iterations      .... Maxiter - #DIIS iter
   Number of Davidson start vectors     ....     2
   Converg. threshold    (grad. norm)   ....   1.000e-05
   Grad. Scal. Fac. for Micro threshold ....   0.100
   Minimum threshold for Micro iter.    ....   1.000e-02
   NR start threshold (gradient norm)   ....   1.000e-04
   Initial trust radius                 ....   0.400
   Minimum AH scaling param. (alpha)    ....   1.000
   Maximum AH scaling param. (alpha)    .... 1000.000
   Quad. conv. algorithm                .... NR
   White noise on init. David. guess    .... on
   Maximum white noise                  ....   0.010
   Pseudo random numbers                .... off
   Inactive MOs                         .... canonical
   Orbital update algorithm             .... Taylor
   Preconditioner                       .... Diag
   Full preconditioner red. dimension   ....   250
 SOSCF                 CNVSOSCF           .... on
   Start iteration     SOSCFMaxIt         ....   150
   Startup grad/error  SOSCFStart         ....  0.003300
   Hessian update      SOSCFHessUp        .... L-BFGS
   Autom. constraints  SOSCFAutoConstrain .... off
 Level Shifting         CNVShift        .... on
   Level shift para.    LevelShift      ....    0.2500
   Turn off err/grad.   ShiftErr        ....    0.0010
 Zerner damping         CNVZerner       .... off
 Static damping         CNVDamp         .... on
   Fraction old density DampFac         ....    0.7000
   Max. Damping (<1)    DampMax         ....    0.9800
   Min. Damping (>=0)   DampMin         ....    0.0000
   Turn off err/grad.   DampErr         ....    0.1000

SCF Procedure:
 Maximum # iterations   MaxIter         ....   125
 SCF integral mode      SCFMode         .... Direct
   Integral package                     .... SHARK and LIBINT hybrid scheme
 Reset frequency        DirectResetFreq ....    20
 Integral Threshold     Thresh          ....  1.000e-12 Eh
 Primitive CutOff       TCut            ....  1.000e-13 Eh

Convergence Tolerance:
 Convergence Check Mode ConvCheckMode   .... Total+1el-Energy
 Convergence forced     ConvForced      .... 0
 Energy Change          TolE            ....  1.000e-08 Eh
 1-El. energy change                    ....  1.000e-05 Eh
 Orbital Gradient       TolG            ....  1.000e-05
 Orbital Rotation angle TolX            ....  1.000e-05
 DIIS Error             TolErr          ....  5.000e-07

---------------------
INITIAL GUESS: MOREAD
---------------------
Guess MOs are being read from file: C60-Ih.gbw
Input Geometry matches current geometry (good)
Atom 0: N(Shells)= 13 and 11 - projection required
Input basis set needs projection
NBasis(read)= 1860
NBasis(calc)= 2220
Basis set overlap was calculated
Using GuessMode=FMatrix for the initial guess
C*T matrix was formed
Effective Fockian was calculated
Effective Fockian was diagonalized
Initial density was built
                      ------------------
                      INITIAL GUESS DONE (   3.8 sec)
                      ------------------
             **** ENERGY FILE WAS UPDATED (POL_c60-Ih_p.en.tmp) ****
Finished Guess after  16.5 sec
Maximum memory used throughout the entire GUESS-calculation: 608.4 MB


           ************************************************************
           *        Program running with 32 parallel MPI-processes    *
           *              working on a common directory               *
           ************************************************************

-------------------------------------------------------------------------------------------
                                      ORCA LEAN-SCF
                              memory conserving SCF solver
-------------------------------------------------------------------------------------------

----------------------------------------D-I-I-S--------------------------------------------
Iteration    Energy (Eh)           Delta-E    RMSDP     MaxDP     DIISErr   Damp  Time(sec)
-------------------------------------------------------------------------------------------
               ***  Starting incremental Fock matrix formation  ***
    1    -2285.6544735604147718     0.00e+00  3.62e-01  6.68e+00  6.75e-03  0.700 140.6
    2    -2285.6577474157675169    -3.27e-03  3.59e-01  6.56e+00  4.82e-03  0.700  70.3
                               ***Turning on AO-DIIS***
    3    -2285.6603351250396372    -2.59e-03  2.84e-01  5.13e+00  3.45e-03  0.700  68.3
                              *** Initializing SOSCF ***
---------------------------------------S-O-S-C-F--------------------------------------
Iteration    Energy (Eh)           Delta-E    RMSDP     MaxDP     MaxGrad    Time(sec)
--------------------------------------------------------------------------------------
    4    -2285.6622953833139036    -1.96e-03  6.86e-01  1.23e+01  2.40e-03    69.7
               *** Restarting incremental Fock matrix formation ***
    5    -2285.6675254900656000    -5.23e-03  7.51e-02  1.02e+00  1.11e-03   146.1
    6    -2285.6676255093589134    -1.00e-04  1.75e-02  3.05e-01  3.51e-04   125.6
    7    -2285.6676362099005928    -1.07e-05  6.59e-03  1.19e-01  6.45e-05   119.6
    8    -2285.6676359089960897     3.01e-07  2.38e-03  2.70e-02  6.31e-05   115.5
    9    -2285.6676376860632445    -1.78e-06  1.60e-02  2.40e-01  1.82e-05   105.2
   10    -2285.6676355691233766     2.12e-06  1.21e-02  1.82e-01  1.91e-05   108.6
   11    -2285.6676361799982260    -6.11e-07  1.94e-02  3.51e-01  1.12e-05   108.4
   12    -2285.6676381767047133    -2.00e-06  1.24e-02  2.18e-01  2.39e-05   110.8
   13    -2285.6676374098751694     7.67e-07  3.33e-02  6.01e-01  1.45e-05   107.8
   14    -2285.6676340358317248     3.37e-06  2.12e-02  3.73e-01  2.63e-05   111.0
   15    -2285.6676360390883929    -2.00e-06  9.35e-03  1.81e-01  9.64e-06   112.2
   16    -2285.6676366203701036    -5.81e-07  2.73e-02  4.82e-01  7.03e-06   106.9
   17    -2285.6676389854765148    -2.37e-06  2.03e-02  3.61e-01  2.17e-05   117.4
   18    -2285.6676371926641878     1.79e-06  3.42e-03  6.53e-02  4.47e-06   108.8
   19    -2285.6676373533464357    -1.61e-07  2.00e-03  5.02e-02  2.89e-06   113.8
   20    -2285.6676378832926275    -5.30e-07  8.67e-03  1.72e-01  3.30e-06    99.0
   21    -2285.6676388351643254    -9.52e-07  4.26e-03  8.50e-02  6.01e-06   107.0
   22    -2285.6676382545992965     5.81e-07  1.09e-02  3.18e-01  3.35e-06   109.0
   23    -2285.6676370901968767     1.16e-06  5.66e-03  1.44e-01  4.47e-06   119.9
   24    -2285.6676378304728132    -7.40e-07  7.00e-03  1.62e-01  3.03e-06   105.3
               *** Restarting incremental Fock matrix formation ***
   25    -2285.6676373749869526     4.55e-07  8.02e-03  1.63e-01  2.18e-05   145.6
   26    -2285.6676387652078120    -1.39e-06  9.99e-03  2.31e-01  1.63e-05   106.4
   27    -2285.6676387410589086     2.41e-08  1.74e-02  3.63e-01  1.46e-05   113.1
   28    -2285.6676381593624683     5.82e-07  1.15e-02  2.21e-01  1.20e-05   110.0
   29    -2285.6676394002915913    -1.24e-06  6.41e-03  1.20e-01  6.57e-06   107.4
   30    -2285.6676393240395555     7.63e-08  2.59e-03  4.13e-02  3.69e-06   108.4
   31    -2285.6676391659893852     1.58e-07  1.42e-02  2.40e-01  4.42e-06   101.0
   32    -2285.6676380814478762     1.08e-06  1.05e-02  1.84e-01  1.33e-05   113.3
   33    -2285.6676389369677054    -8.56e-07  5.11e-03  9.04e-02  2.67e-06   108.1
   34    -2285.6676392735680565    -3.37e-07  1.67e-03  3.31e-02  1.44e-06   105.3
                  *** Gradient check signals convergence ***

               *****************************************************
               *                     SUCCESS                       *
               *           SCF CONVERGED AFTER  34 CYCLES          *
               *****************************************************

Recomputing exchange energy using gridx3       ... done (  215.853 sec)
Old exchange energy                            :    -87.376436950 Eh
New exchange energy                            :    -87.375651308 Eh
Exchange energy change after final integration :      0.000785642 Eh
Total energy after final integration           :  -2285.666854000 Eh
             **** ENERGY FILE WAS UPDATED (POL_c60-Ih_p.en.tmp) ****

----------------
TOTAL SCF ENERGY
----------------

Total Energy       :      -2285.66685400034021 Eh          -62196.15709 eV

Components:
Nuclear Repulsion  :       8356.47815649772747 Eh          227391.33099 eV
Electronic Energy  :     -10642.14579614037211 Eh         -289587.50946 eV
One Electron Energy:     -19736.41836194986899 Eh         -537055.24699 eV
Two Electron Energy:       9094.27256580949688 Eh          247467.73753 eV

Virial components:
Potential Energy   :      -4561.08484802769090 Eh         -124113.42852 eV
Kinetic Energy     :       2275.41799402735069 Eh           61917.27143 eV
Virial Ratio       :          2.00450416582794

DFT components:
N(Alpha)           :      179.999607993162 electrons
N(Beta)            :      179.999607993162 electrons
N(Total)           :      359.999215986324 electrons
E(XC)              :     -238.096782153149 Eh       

---------------
SCF CONVERGENCE
---------------

  Last Energy change         ...    3.3660e-07  Tolerance :   1.0000e-08
  Last MAX-Density change    ...    3.3078e-02  Tolerance :   1.0000e-07
  Last RMS-Density change    ...    1.6689e-03  Tolerance :   5.0000e-09
  Last DIIS Error            ...    2.3996e-03  Tolerance :   5.0000e-07
  Last Orbital Gradient      ...    1.4389e-06  Tolerance :   1.0000e-05
  Last Orbital Rotation      ...    7.9833e-07  Tolerance :   1.0000e-05


----------------
ORBITAL ENERGIES
----------------

  NO   OCC          E(Eh)            E(eV) 
   0   2.0000     -10.300297      -280.2853 
   1   2.0000     -10.300280      -280.2849 
   2   2.0000     -10.300280      -280.2849 
   3   2.0000     -10.300279      -280.2849 
   4   2.0000     -10.300215      -280.2831 
   5   2.0000     -10.300215      -280.2831 
   6   2.0000     -10.300215      -280.2831 
   7   2.0000     -10.300214      -280.2831 
   8   2.0000     -10.300214      -280.2831 
   9   2.0000     -10.300118      -280.2804 
  10   2.0000     -10.300117      -280.2804 
  11   2.0000     -10.300117      -280.2804 
  12   2.0000     -10.300117      -280.2804 
  13   2.0000     -10.300080      -280.2794 
  14   2.0000     -10.300079      -280.2794 
  15   2.0000     -10.300079      -280.2794 
  16   2.0000     -10.299991      -280.2770 
  17   2.0000     -10.299990      -280.2770 
  18   2.0000     -10.299990      -280.2770 
  19   2.0000     -10.299990      -280.2770 
  20   2.0000     -10.299953      -280.2760 
  21   2.0000     -10.299952      -280.2760 
  22   2.0000     -10.299952      -280.2759 
  23   2.0000     -10.299952      -280.2759 
  24   2.0000     -10.299951      -280.2759 
  25   2.0000     -10.299908      -280.2747 
  26   2.0000     -10.299908      -280.2747 
  27   2.0000     -10.299908      -280.2747 
  28   2.0000     -10.299908      -280.2747 
  29   2.0000     -10.299907      -280.2747 
  30   2.0000     -10.299575      -280.2657 
  31   2.0000     -10.299574      -280.2657 
  32   2.0000     -10.299574      -280.2657 
  33   2.0000     -10.299536      -280.2646 
  34   2.0000     -10.299536      -280.2646 
  35   2.0000     -10.299536      -280.2646 
  36   2.0000     -10.299424      -280.2616 
  37   2.0000     -10.299423      -280.2616 
  38   2.0000     -10.299423      -280.2615 
  39   2.0000     -10.299423      -280.2615 
  40   2.0000     -10.299423      -280.2615 
  41   2.0000     -10.299384      -280.2605 
  42   2.0000     -10.299384      -280.2605 
  43   2.0000     -10.299384      -280.2605 
  44   2.0000     -10.299344      -280.2594 
  45   2.0000     -10.299344      -280.2594 
  46   2.0000     -10.299344      -280.2594 
  47   2.0000     -10.299343      -280.2594 
  48   2.0000     -10.299343      -280.2594 
  49   2.0000     -10.299242      -280.2566 
  50   2.0000     -10.299242      -280.2566 
  51   2.0000     -10.299242      -280.2566 
  52   2.0000     -10.299241      -280.2566 
  53   2.0000     -10.299121      -280.2533 
  54   2.0000     -10.299121      -280.2533 
  55   2.0000     -10.299121      -280.2533 
  56   2.0000     -10.299120      -280.2533 
  57   2.0000     -10.299115      -280.2532 
  58   2.0000     -10.299114      -280.2532 
  59   2.0000     -10.299114      -280.2531 
  60   2.0000      -1.069933       -29.1144 
  61   2.0000      -1.049507       -28.5585 
  62   2.0000      -1.049507       -28.5585 
  63   2.0000      -1.049507       -28.5585 
  64   2.0000      -1.010280       -27.4911 
  65   2.0000      -1.010280       -27.4911 
  66   2.0000      -1.010280       -27.4911 
  67   2.0000      -1.010278       -27.4911 
  68   2.0000      -1.010278       -27.4911 
  69   2.0000      -0.968546       -26.3555 
  70   2.0000      -0.968545       -26.3555 
  71   2.0000      -0.968545       -26.3555 
  72   2.0000      -0.936529       -25.4842 
  73   2.0000      -0.936526       -25.4842 
  74   2.0000      -0.936525       -25.4841 
  75   2.0000      -0.936525       -25.4841 
  76   2.0000      -0.883530       -24.0421 
  77   2.0000      -0.883530       -24.0421 
  78   2.0000      -0.883529       -24.0421 
  79   2.0000      -0.883528       -24.0420 
  80   2.0000      -0.883528       -24.0420 
  81   2.0000      -0.866209       -23.5707 
  82   2.0000      -0.866208       -23.5707 
  83   2.0000      -0.866208       -23.5707 
  84   2.0000      -0.866207       -23.5707 
  85   2.0000      -0.806324       -21.9412 
  86   2.0000      -0.806324       -21.9412 
  87   2.0000      -0.806324       -21.9412 
  88   2.0000      -0.806323       -21.9412 
  89   2.0000      -0.806323       -21.9412 
  90   2.0000      -0.793356       -21.5883 
  91   2.0000      -0.793356       -21.5883 
  92   2.0000      -0.793356       -21.5883 
  93   2.0000      -0.750563       -20.4238 
  94   2.0000      -0.750562       -20.4238 
  95   2.0000      -0.750562       -20.4238 
  96   2.0000      -0.710164       -19.3245 
  97   2.0000      -0.710163       -19.3245 
  98   2.0000      -0.710163       -19.3245 
  99   2.0000      -0.710163       -19.3245 
 100   2.0000      -0.710163       -19.3245 
 101   2.0000      -0.705454       -19.1964 
 102   2.0000      -0.705453       -19.1964 
 103   2.0000      -0.705453       -19.1964 
 104   2.0000      -0.684350       -18.6221 
 105   2.0000      -0.639108       -17.3910 
 106   2.0000      -0.639106       -17.3910 
 107   2.0000      -0.639106       -17.3910 
 108   2.0000      -0.639106       -17.3910 
 109   2.0000      -0.611269       -16.6335 
 110   2.0000      -0.611269       -16.6335 
 111   2.0000      -0.611269       -16.6335 
 112   2.0000      -0.611269       -16.6335 
 113   2.0000      -0.611268       -16.6335 
 114   2.0000      -0.596774       -16.2391 
 115   2.0000      -0.596774       -16.2391 
 116   2.0000      -0.596774       -16.2391 
 117   2.0000      -0.572405       -15.5759 
 118   2.0000      -0.570590       -15.5266 
 119   2.0000      -0.570590       -15.5266 
 120   2.0000      -0.570590       -15.5265 
 121   2.0000      -0.546666       -14.8755 
 122   2.0000      -0.546664       -14.8755 
 123   2.0000      -0.546663       -14.8755 
 124   2.0000      -0.542923       -14.7737 
 125   2.0000      -0.542921       -14.7736 
 126   2.0000      -0.542921       -14.7736 
 127   2.0000      -0.542920       -14.7736 
 128   2.0000      -0.523269       -14.2389 
 129   2.0000      -0.523269       -14.2389 
 130   2.0000      -0.523269       -14.2389 
 131   2.0000      -0.523269       -14.2389 
 132   2.0000      -0.523268       -14.2389 
 133   2.0000      -0.508415       -13.8347 
 134   2.0000      -0.508414       -13.8347 
 135   2.0000      -0.508414       -13.8347 
 136   2.0000      -0.508414       -13.8347 
 137   2.0000      -0.497206       -13.5297 
 138   2.0000      -0.497199       -13.5295 
 139   2.0000      -0.497194       -13.5294 
 140   2.0000      -0.497180       -13.5290 
 141   2.0000      -0.497174       -13.5288 
 142   2.0000      -0.495890       -13.4938 
 143   2.0000      -0.495890       -13.4938 
 144   2.0000      -0.495890       -13.4938 
 145   2.0000      -0.477544       -12.9946 
 146   2.0000      -0.477544       -12.9946 
 147   2.0000      -0.477544       -12.9946 
 148   2.0000      -0.477544       -12.9946 
 149   2.0000      -0.434117       -11.8129 
 150   2.0000      -0.434111       -11.8127 
 151   2.0000      -0.434108       -11.8127 
 152   2.0000      -0.432275       -11.7628 
 153   2.0000      -0.432275       -11.7628 
 154   2.0000      -0.432275       -11.7628 
 155   2.0000      -0.432274       -11.7628 
 156   2.0000      -0.432274       -11.7628 
 157   2.0000      -0.420288       -11.4366 
 158   2.0000      -0.420288       -11.4366 
 159   2.0000      -0.420288       -11.4366 
 160   2.0000      -0.420288       -11.4366 
 161   2.0000      -0.420288       -11.4366 
 162   2.0000      -0.415441       -11.3047 
 163   2.0000      -0.415440       -11.3047 
 164   2.0000      -0.415437       -11.3046 
 165   2.0000      -0.415434       -11.3045 
 166   2.0000      -0.336694        -9.1619 
 167   2.0000      -0.336694        -9.1619 
 168   2.0000      -0.336692        -9.1619 
 169   2.0000      -0.336690        -9.1618 
 170   2.0000      -0.332902        -9.0587 
 171   2.0000      -0.332895        -9.0585 
 172   2.0000      -0.332893        -9.0585 
 173   2.0000      -0.332891        -9.0584 
 174   2.0000      -0.332887        -9.0583 
 175   2.0000      -0.277560        -7.5528 
 176   2.0000      -0.277559        -7.5528 
 177   2.0000      -0.277556        -7.5527 
 178   2.0000      -0.277555        -7.5526 
 179   2.0000      -0.277553        -7.5526 
 180   0.0000      -0.100888        -2.7453 
 181   0.0000      -0.100888        -2.7453 
 182   0.0000      -0.100887        -2.7453 
 183   0.0000      -0.049135        -1.3370 
 184   0.0000      -0.049134        -1.3370 
 185   0.0000      -0.049134        -1.3370 
 186   0.0000      -0.008920        -0.2427 
 187   0.0000      -0.008919        -0.2427 
 188   0.0000      -0.008919        -0.2427 
 189   0.0000      -0.003315        -0.0902 
 190   0.0000      -0.003314        -0.0902 
*Only the first 10 virtual orbitals were printed.

                    ********************************
                    * MULLIKEN POPULATION ANALYSIS *
                    ********************************

-----------------------
MULLIKEN ATOMIC CHARGES
-----------------------
   0 C :    0.472208
   1 C :    0.087419
   2 C :   -0.163771
   3 C :   -0.265339
   4 C :    0.054406
   5 C :    0.000071
   6 C :   -0.173584
   7 C :   -0.193492
   8 C :   -0.204269
   9 C :    0.054505
  10 C :   -0.168534
  11 C :   -0.031098
  12 C :   -0.121862
  13 C :    0.221019
  14 C :   -0.129171
  15 C :   -0.219918
  16 C :   -0.130177
  17 C :    0.142766
  18 C :   -0.059153
  19 C :    0.066473
  20 C :    0.433580
  21 C :    0.328805
  22 C :    0.211561
  23 C :   -0.025726
  24 C :    0.161122
  25 C :    0.128513
  26 C :   -0.025153
  27 C :   -0.069335
  28 C :   -0.135488
  29 C :   -0.077747
  30 C :    0.021595
  31 C :    0.113353
  32 C :    0.112807
  33 C :    0.107245
  34 C :   -0.137419
  35 C :    0.126782
  36 C :   -0.308255
  37 C :   -0.066329
  38 C :    0.184329
  39 C :   -0.143014
  40 C :    0.105098
  41 C :   -0.120902
  42 C :   -0.170053
  43 C :   -0.228606
  44 C :   -0.086607
  45 C :   -0.116894
  46 C :    0.117721
  47 C :   -0.194834
  48 C :    0.211469
  49 C :   -0.019814
  50 C :    0.047161
  51 C :   -0.258205
  52 C :    0.072595
  53 C :   -0.071512
  54 C :    0.066627
  55 C :   -0.086468
  56 C :    0.283741
  57 C :    0.367014
  58 C :   -0.024654
  59 C :   -0.072602
Sum of atomic charges:    0.0000000

--------------------------------
MULLIKEN REDUCED ORBITAL CHARGES
--------------------------------
  0 C s       :     3.671617  s :     3.671617
      pz      :     0.575826  p :     1.890325
      px      :     0.749353
      py      :     0.565147
      dz2     :     0.045577  d :    -0.044173
      dxz     :    -0.094680
      dyz     :     0.054927
      dx2y2   :     0.001461
      dxy     :    -0.051457
      f0      :     0.001539  f :     0.010023
      f+1     :     0.001423
      f-1     :     0.000933
      f+2     :     0.001688
      f-2     :     0.001123
      f+3     :     0.002211
      f-3     :     0.001107

  1 C s       :     3.691600  s :     3.691600
      pz      :     0.720603  p :     2.255260
      px      :     0.933056
      py      :     0.601601
      dz2     :    -0.125653  d :    -0.044300
      dxz     :     0.013519
      dyz     :     0.036356
      dx2y2   :    -0.031710
      dxy     :     0.063188
      f0      :     0.001089  f :     0.010020
      f+1     :     0.000841
      f-1     :     0.002186
      f+2     :     0.001703
      f-2     :     0.001695
      f+3     :     0.001083
      f-3     :     0.001424

  2 C s       :     3.742847  s :     3.742847
      pz      :     0.890211  p :     2.190655
      px      :     0.538559
      py      :     0.761886
      dz2     :     0.071839  d :     0.220247
      dxz     :    -0.035618
      dyz     :    -0.017286
      dx2y2   :     0.119870
      dxy     :     0.081442
      f0      :     0.000787  f :     0.010022
      f+1     :     0.001347
      f-1     :     0.001343
      f+2     :     0.001138
      f-2     :     0.001691
      f+3     :     0.002263
      f-3     :     0.001453

  3 C s       :     3.935314  s :     3.935314
      pz      :     0.700474  p :     2.110560
      px      :     0.683652
      py      :     0.726434
      dz2     :     0.014019  d :     0.209448
      dxz     :     0.058771
      dyz     :     0.098657
      dx2y2   :     0.000616
      dxy     :     0.037385
      f0      :     0.001286  f :     0.010017
      f+1     :     0.001749
      f-1     :     0.002316
      f+2     :     0.000752
      f-2     :     0.001121
      f+3     :     0.001474
      f-3     :     0.001319

  4 C s       :     3.801494  s :     3.801494
      pz      :     0.635373  p :     2.056996
      px      :     0.675931
      py      :     0.745692
      dz2     :     0.092229  d :     0.077083
      dxz     :    -0.003337
      dyz     :     0.045093
      dx2y2   :     0.001774
      dxy     :    -0.058677
      f0      :     0.001287  f :     0.010021
      f+1     :     0.001752
      f-1     :     0.002314
      f+2     :     0.000753
      f-2     :     0.001124
      f+3     :     0.001475
      f-3     :     0.001316

  5 C s       :     3.621346  s :     3.621346
      pz      :     0.500018  p :     2.185176
      px      :     0.828049
      py      :     0.857109
      dz2     :     0.018066  d :     0.183395
      dxz     :    -0.037374
      dyz     :     0.189648
      dx2y2   :    -0.001800
      dxy     :     0.014855
      f0      :     0.001165  f :     0.010011
      f+1     :     0.001822
      f-1     :     0.002915
      f+2     :     0.001069
      f-2     :     0.000974
      f+3     :     0.000858
      f-3     :     0.001209

  6 C s       :     3.812412  s :     3.812412
      pz      :     0.515752  p :     2.187165
      px      :     0.940214
      py      :     0.731200
      dz2     :     0.115993  d :     0.163987
      dxz     :     0.011311
      dyz     :     0.026666
      dx2y2   :     0.007541
      dxy     :     0.002474
      f0      :     0.001165  f :     0.010020
      f+1     :     0.001827
      f-1     :     0.002916
      f+2     :     0.001065
      f-2     :     0.000975
      f+3     :     0.000857
      f-3     :     0.001215

  7 C s       :     3.797425  s :     3.797425
      pz      :     0.785467  p :     2.186000
      px      :     0.830771
      py      :     0.569763
      dz2     :     0.097807  d :     0.200048
      dxz     :     0.052554
      dyz     :     0.035408
      dx2y2   :     0.018746
      dxy     :    -0.004467
      f0      :     0.001088  f :     0.010019
      f+1     :     0.000840
      f-1     :     0.002188
      f+2     :     0.001706
      f-2     :     0.001691
      f+3     :     0.001083
      f-3     :     0.001424

  8 C s       :     3.677455  s :     3.677455
      pz      :     0.892006  p :     2.285709
      px      :     0.833294
      py      :     0.560409
      dz2     :     0.007670  d :     0.231089
      dxz     :     0.002889
      dyz     :     0.021571
      dx2y2   :     0.093545
      dxy     :     0.105414
      f0      :     0.001195  f :     0.010016
      f+1     :     0.001289
      f-1     :     0.000832
      f+2     :     0.001488
      f-2     :     0.000977
      f+3     :     0.002836
      f-3     :     0.001399

  9 C s       :     3.597045  s :     3.597045
      pz      :     0.854104  p :     2.181162
      px      :     0.533189
      py      :     0.793869
      dz2     :     0.029306  d :     0.157270
      dxz     :     0.020673
      dyz     :     0.003766
      dx2y2   :     0.053709
      dxy     :     0.049816
      f0      :     0.000785  f :     0.010018
      f+1     :     0.001346
      f-1     :     0.001342
      f+2     :     0.001136
      f-2     :     0.001692
      f+3     :     0.002262
      f-3     :     0.001455

 10 C s       :     3.806620  s :     3.806620
      pz      :     0.897721  p :     2.089385
      px      :     0.737362
      py      :     0.454302
      dz2     :    -0.005549  d :     0.262510
      dxz     :     0.029214
      dyz     :     0.034394
      dx2y2   :     0.223031
      dxy     :    -0.018581
      f0      :     0.001194  f :     0.010018
      f+1     :     0.001293
      f-1     :     0.000831
      f+2     :     0.001492
      f-2     :     0.000974
      f+3     :     0.002837
      f-3     :     0.001398

 11 C s       :     3.644108  s :     3.644108
      pz      :     0.747110  p :     2.213381
      px      :     0.823825
      py      :     0.642445
      dz2     :     0.014449  d :     0.163586
      dxz     :    -0.028636
      dyz     :     0.069252
      dx2y2   :     0.064423
      dxy     :     0.044098
      f0      :     0.001536  f :     0.010023
      f+1     :     0.001422
      f-1     :     0.000934
      f+2     :     0.001691
      f-2     :     0.001123
      f+3     :     0.002211
      f-3     :     0.001106

 12 C s       :     3.599983  s :     3.599983
      pz      :     0.820139  p :     2.292357
      px      :     0.898472
      py      :     0.573746
      dz2     :     0.049855  d :     0.219504
      dxz     :    -0.002183
      dyz     :     0.031772
      dx2y2   :     0.052360
      dxy     :     0.087700
      f0      :     0.001087  f :     0.010018
      f+1     :     0.000839
      f-1     :     0.002186
      f+2     :     0.001708
      f-2     :     0.001694
      f+3     :     0.001081
      f-3     :     0.001424

 13 C s       :     3.602293  s :     3.602293
      pz      :     0.743375  p :     2.130314
      px      :     0.565455
      py      :     0.821484
      dz2     :     0.001183  d :     0.036351
      dxz     :     0.025725
      dyz     :    -0.036288
      dx2y2   :    -0.019096
      dxy     :     0.064828
      f0      :     0.001610  f :     0.010022
      f+1     :     0.000971
      f-1     :     0.001512
      f+2     :     0.002026
      f-2     :     0.001125
      f+3     :     0.001068
      f-3     :     0.001710

 14 C s       :     3.664855  s :     3.664855
      pz      :     0.508034  p :     2.232865
      px      :     0.718869
      py      :     1.005962
      dz2     :     0.162768  d :     0.221435
      dxz     :     0.043068
      dyz     :     0.072388
      dx2y2   :    -0.056841
      dxy     :     0.000053
      f0      :     0.001957  f :     0.010016
      f+1     :     0.001608
      f-1     :     0.001169
      f+2     :     0.001654
      f-2     :     0.001689
      f+3     :     0.001187
      f-3     :     0.000753

 15 C s       :     3.641160  s :     3.641160
      pz      :     0.758041  p :     2.310017
      px      :     0.701121
      py      :     0.850855
      dz2     :    -0.083531  d :     0.258720
      dxz     :     0.092798
      dyz     :     0.148295
      dx2y2   :     0.013781
      dxy     :     0.087378
      f0      :     0.001287  f :     0.010022
      f+1     :     0.001752
      f-1     :     0.002316
      f+2     :     0.000754
      f-2     :     0.001122
      f+3     :     0.001474
      f-3     :     0.001317

 16 C s       :     3.811035  s :     3.811035
      pz      :     0.815689  p :     2.198618
      px      :     0.789869
      py      :     0.593060
      dz2     :    -0.021783  d :     0.110506
      dxz     :     0.001392
      dyz     :    -0.049830
      dx2y2   :     0.096328
      dxy     :     0.084399
      f0      :     0.001535  f :     0.010018
      f+1     :     0.001421
      f-1     :     0.000932
      f+2     :     0.001691
      f-2     :     0.001122
      f+3     :     0.002211
      f-3     :     0.001107

 17 C s       :     3.748638  s :     3.748638
      pz      :     0.671671  p :     2.097786
      px      :     0.741782
      py      :     0.684334
      dz2     :     0.041431  d :     0.000796
      dxz     :    -0.105758
      dyz     :     0.081694
      dx2y2   :    -0.058045
      dxy     :     0.041474
      f0      :     0.001535  f :     0.010014
      f+1     :     0.001422
      f-1     :     0.000933
      f+2     :     0.001687
      f-2     :     0.001120
      f+3     :     0.002212
      f-3     :     0.001105

 18 C s       :     3.759958  s :     3.759958
      pz      :     0.965351  p :     2.030528
      px      :     0.415405
      py      :     0.649771
      dz2     :    -0.001440  d :     0.258653
      dxz     :     0.048073
      dyz     :     0.054871
      dx2y2   :     0.084732
      dxy     :     0.072417
      f0      :     0.000785  f :     0.010014
      f+1     :     0.001345
      f-1     :     0.001341
      f+2     :     0.001135
      f-2     :     0.001694
      f+3     :     0.002264
      f-3     :     0.001452

 19 C s       :     3.694767  s :     3.694767
      pz      :     0.848689  p :     2.164171
      px      :     0.616374
      py      :     0.699108
      dz2     :    -0.016380  d :     0.064573
      dxz     :     0.045035
      dyz     :     0.013165
      dx2y2   :     0.024927
      dxy     :    -0.002174
      f0      :     0.000788  f :     0.010015
      f+1     :     0.001348
      f-1     :     0.001342
      f+2     :     0.001135
      f-2     :     0.001690
      f+3     :     0.002260
      f-3     :     0.001452

 20 C s       :     3.598533  s :     3.598533
      pz      :     0.753394  p :     2.116228
      px      :     0.624872
      py      :     0.737962
      dz2     :    -0.074343  d :    -0.158367
      dxz     :    -0.124597
      dyz     :     0.038411
      dx2y2   :    -0.075136
      dxy     :     0.077298
      f0      :     0.001607  f :     0.010026
      f+1     :     0.000975
      f-1     :     0.001513
      f+2     :     0.002026
      f-2     :     0.001125
      f+3     :     0.001068
      f-3     :     0.001712

 21 C s       :     3.545226  s :     3.545226
      pz      :     0.753643  p :     2.078609
      px      :     0.829033
      py      :     0.495933
      dz2     :    -0.057906  d :     0.037331
      dxz     :     0.003503
      dyz     :     0.057311
      dx2y2   :     0.004013
      dxy     :     0.030411
      f0      :     0.001092  f :     0.010029
      f+1     :     0.000840
      f-1     :     0.002188
      f+2     :     0.001706
      f-2     :     0.001693
      f+3     :     0.001084
      f-3     :     0.001425

 22 C s       :     3.726504  s :     3.726504
[...]
 25-C                     :       -0.010346308     -0.025515904     -0.003375996 (    0.027739949,  0.07051 Debye)
 26-C                     :        0.003365674     -0.010388326      0.025557358 (    0.027792510,  0.07064 Debye)
 27-C                     :       -0.022201267      0.005442820      0.015760158 (    0.027765143,  0.07057 Debye)
 28-C                     :       -0.020161147     -0.000004248      0.019139079 (    0.027798853,  0.07066 Debye)
 29-C                     :       -0.010378613     -0.025540698      0.003370320 (    0.027774124,  0.07060 Debye)
 30-C                     :       -0.022207812      0.005435862     -0.015765980 (    0.027772318,  0.07059 Debye)
 31-C                     :       -0.020156650     -0.000002984     -0.019145767 (    0.027800197,  0.07066 Debye)
 32-C                     :        0.015773323     -0.022189120     -0.005436660 (    0.027761701,  0.07056 Debye)
 33-C                     :        0.019148456     -0.020182619     -0.000004225 (    0.027820882,  0.07072 Debye)
 34-C                     :       -0.003372225     -0.010341437      0.025521460 (    0.027742786,  0.07052 Debye)
 35-C                     :       -0.019157657     -0.020155733     -0.000002665 (    0.027807721,  0.07068 Debye)
 36-C                     :       -0.015774549     -0.022215752      0.005429709 (    0.027782329,  0.07062 Debye)
 37-C                     :        0.015768647     -0.022189991      0.005437245 (    0.027759855,  0.07056 Debye)
 38-C                     :       -0.003376759     -0.010351862     -0.025519266 (    0.027745206,  0.07052 Debye)
 39-C                     :        0.003372394     -0.010338637     -0.025509581 (    0.027730834,  0.07049 Debye)
 40-C                     :       -0.025482129     -0.003382252     -0.010317264 (    0.027698817,  0.07040 Debye)
 41-C                     :       -0.025519686      0.003375353     -0.010359930 (    0.027748433,  0.07053 Debye)
 42-C                     :        0.005451707     -0.015755436     -0.022167186 (    0.027736961,  0.07050 Debye)
 43-C                     :        0.005443291      0.015756182     -0.022185507 (    0.027750377,  0.07054 Debye)
 44-C                     :       -0.015780692      0.022215945      0.005440470 (    0.027788075,  0.07063 Debye)
 45-C                     :       -0.010345098      0.025510772      0.003382699 (    0.027735594,  0.07050 Debye)
 46-C                     :       -0.022200795     -0.005430493     -0.015775601 (    0.027771120,  0.07059 Debye)
 47-C                     :        0.003373949      0.010348032     -0.025530136 (    0.027753435,  0.07054 Debye)
 48-C                     :        0.015776957      0.022201352      0.005438051 (    0.027773815,  0.07060 Debye)
 49-C                     :        0.019147893      0.020174506      0.000003686 (    0.027814610,  0.07070 Debye)
 50-C                     :       -0.019137787      0.020153567     -0.000005606 (    0.027792466,  0.07064 Debye)
 51-C                     :       -0.003378173      0.010356709     -0.025526439 (    0.027753785,  0.07054 Debye)
 52-C                     :        0.025547087     -0.003368647     -0.010380472 (    0.027780490,  0.07061 Debye)
 53-C                     :        0.022200076     -0.005438428     -0.015762392 (    0.027764597,  0.07057 Debye)
 54-C                     :        0.010322471      0.025491833      0.003380506 (    0.027709471,  0.07043 Debye)
 55-C                     :       -0.005439442      0.015774833     -0.022203563 (    0.027774648,  0.07060 Debye)
 56-C                     :        0.000003283     -0.019146970     -0.020174224 (    0.027813769,  0.07070 Debye)
 57-C                     :       -0.005443512     -0.015768467     -0.022186926 (    0.027758531,  0.07056 Debye)
 58-C                     :        0.025529850      0.003367576     -0.010355282 (    0.027755102,  0.07055 Debye)
 59-C                     :        0.000000244      0.019141518     -0.020160430 (    0.027800012,  0.07066 Debye)
                                  ----------------------------------------------
Total dipole moment (a.u.):       -0.000050054      0.000010170      0.000074289


Dipole moment calculation done in  13.6 sec 

Local polarizability - doing local atomic dipoles ...done


---------------------------------------------------
STATIC POLARIZABILITY TENSOR (Dipole/Dipole)
---------------------------------------------------

Method             : SCF
Type of density    : Electron Density
Type of derivative : Electric Field (Direction=X)
Multiplicity       :   1
Irrep              :   0
Basis              : AO

The raw cartesian tensor (atomic units):
     535.874257074         0.001212541         0.002798463  
       0.001212541       535.868374538        -0.002057975  
       0.002798463        -0.002057975       535.876630605  
diagonalized tensor: 
     535.867361750       535.873301401       535.878599067  

Orientation: 
      -0.277831464         0.809858021         0.516662039  
       0.916629102         0.384408328        -0.109641813  
       0.287403492        -0.443125515         0.849140159  

Isotropic polarizability : 535.87309


-----------------------
ATOMIC POLARIZABILITIES
-----------------------

NOTE: this involves numerical integration. The total might be slightly different than the analytic polarizability

                                       XX                YY               ZZ              XY              XZ              YZ  
                                  ------------------------------------------------------------------------------------------------
  0-C                     :       12.721099390      1.408622076     12.665917901    -3.742356020     13.447896870     -2.222045161 iso=    8.931879789
  1-C                     :       19.007399912      2.458651283      5.328427326    -7.105318629      8.563951754     -1.895326471 iso=    8.931492840
  2-C                     :        2.458850558      5.327743029     19.006880042    -1.895383058      4.116881269     -9.704803944 iso=    8.931157876
  3-C                     :       12.664373882     12.720794565      1.408525978   -10.458456470      3.362820094     -3.742019151 iso=    8.931231475
  4-C                     :       12.664472233     12.720060064      1.408519406   -10.458431506     -3.362820367      3.742030361 iso=    8.931017234
  5-C                     :       23.541123150      0.759226263      2.493154132     0.000147229      4.495182801     -0.000068675 iso=    8.931167848
  6-C                     :       23.541318523      0.759413007      2.493127295     0.000328885     -4.495009164     -0.000057927 iso=    8.931286275
  7-C                     :       19.007324106      2.459010943      5.328224513    -7.105315909     -8.563760689      1.895371254 iso=    8.931519854
  8-C                     :        0.759575990      2.493133060     23.541291299     0.000102664      0.000537260      8.188854852 iso=    8.931333449
  9-C                     :        2.458829963      5.328211875     19.006734380     1.895149087      4.116922996      9.705409668 iso=    8.931258739
 10-C                     :        0.759376381      2.493182125     23.543412274    -0.000121561      0.000518442     -8.188962749 iso=    8.931990260
 11-C                     :       12.721496691      1.408397805     12.666506441     3.742402831     13.448501418      2.222396466 iso=    8.932133645
 12-C                     :       19.007678140      2.458720684      5.327980147     7.105262590      8.563856870      1.895398690 iso=    8.931459657
 13-C                     :        1.408413702     12.664889843     12.720639248     2.221725614      1.895365405     10.459046666 iso=    8.931314264
 14-C                     :        5.328201409     19.006990223      2.458615324     9.704926945      3.742080420      7.105316916 iso=    8.931268985
 15-C                     :       12.664645441     12.720550049      1.408311289    10.458802067      3.362972412      3.741959064 iso=    8.931168926
 16-C                     :       12.720544078      1.408530164     12.664575356     3.742063823    -13.447251076     -2.221246943 iso=    8.931216533
 17-C                     :       12.720070207      1.408548845     12.665699875    -3.741992077    -13.446922055      2.221860803 iso=    8.931439642
 18-C                     :        2.459002219      5.328079516     19.007511934     1.895601718     -4.117350909     -9.705424796 iso=    8.931531223
 19-C                     :        2.458901916      5.327886665     19.007659645    -1.895287812     -4.117146128      9.704567081 iso=    8.931482742
 20-C                     :        1.408538901     12.664863997     12.720570141    -2.221732536     -1.895476145     10.458636218 iso=    8.931324347
 21-C                     :       19.007651258      2.458586717      5.328223110    -7.105332381     -8.564129650      1.895139278 iso=    8.931487028
 22-C                     :       12.664771026     12.721179244      1.408357967   -10.459035897     -3.363124161      3.742306206 iso=    8.931436079
 23-C                     :        5.327778214     19.005962859      2.458513692    -9.704411325     -3.741623118      7.104558212 iso=    8.930751589
 24-C                     :        5.327814132     19.006213641      2.458787800     9.704667156     -3.741860449     -7.104822600 iso=    8.930938524
 25-C                     :       12.665473427     12.720699034      1.408398821    10.459683899     -3.363228475     -3.742115766 iso=    8.931523761
 26-C                     :        1.408554521     12.664526492     12.719634134     2.221842670     -1.895467743    -10.458292001 iso=    8.930905049
 27-C                     :       19.007851829      2.458768485      5.328384831     7.105435670     -8.564518906     -1.895497407 iso=    8.931668382
 28-C                     :       23.541264721      0.759555885      2.493158601    -0.000071500     -4.495006863      0.000136179 iso=    8.931326402
 29-C                     :       12.664262329     12.720561637      1.408505778    10.458495905      3.363000216      3.742216798 iso=    8.931109915
 30-C                     :       19.007084258      2.458645317      5.328311511     7.105231483      8.563684922      1.895154283 iso=    8.931347029
 31-C                     :       23.541608838      0.759413074      2.492857840    -0.000002290      4.494909669      0.000070499 iso=    8.931293250
 32-C                     :        5.328499382     19.007796759      2.458684887    -9.706054404      3.742320371     -7.105376722 iso=    8.931660343
 33-C                     :        2.493196889     23.541968143      0.759442816    -8.188535594      0.000044860      0.000007312 iso=    8.931535949
 34-C                     :        1.408231669     12.664969163     12.720700388    -2.221327645      1.894915994    -10.459142103 iso=    8.931300407
 35-C                     :        2.493078618     23.542143827      0.759382792     8.189074668      0.000097397     -0.000250918 iso=    8.931535079
 36-C                     :        5.328229226     19.008046376      2.459060349     9.705090319      3.742019226      7.105409352 iso=    8.931778650
 37-C                     :        5.328475375     19.007939107      2.458772256    -9.705750086     -3.742347515      7.105611784 iso=    8.931728912
 38-C                     :        1.408506693     12.664430706     12.720535237    -2.221825121     -1.895459908     10.458455123 iso=    8.931157545
 39-C                     :        1.408463150     12.664744875     12.719912592     2.221560641      1.895275410     10.458757563 iso=    8.931040206
 40-C                     :       12.720560603      1.408511896     12.665411559    -3.741893778     13.447357738     -2.221751933 iso=    8.931494686
 41-C                     :       12.721066158      1.408684283     12.665397623     3.742182113     13.447858287      2.221750239 iso=    8.931716021
 42-C                     :        2.458988215      5.327997253     19.008044357     1.895474628      4.117514611      9.704823933 iso=    8.931676608
 43-C                     :        2.458951608      5.328255330     19.007568793    -1.895520354      4.117369625     -9.705141193 iso=    8.931591910
 44-C                     :        5.328461900     19.006578840      2.458709361    -9.705186098      3.742089373     -7.104998741 iso=    8.931250034
 45-C                     :       12.664518237     12.720602451      1.408557586   -10.459015162      3.363242930     -3.741976273 iso=    8.931226091
 46-C                     :       19.008327667      2.458794662      5.328244335    -7.105565140      8.564341977     -1.895338893 iso=    8.931788888
 47-C                     :        1.408376469     12.664497221     12.720146566    -2.221484938      1.895191128    -10.458390508 iso=    8.931006752
 48-C                     :        5.328094628     19.007258280      2.458769417     9.705092164     -3.741964810     -7.105220292 iso=    8.931374108
 49-C                     :        2.493064559     23.540442775      0.759373631     8.188404241      0.000016900      0.000008839 iso=    8.930960322
 50-C                     :        2.493208222     23.540583006      0.759641638    -8.188835094      0.000141620      0.000219597 iso=    8.931144289
 51-C                     :        1.408426026     12.664871160     12.720853821     2.221808193     -1.895378440    -10.458885398 iso=    8.931383669
 52-C                     :       12.720429222      1.408627116     12.664982718     3.742210835    -13.447009768     -2.221878140 iso=    8.931346352
 53-C                     :       19.007460921      2.458926364      5.328082778     7.105297501     -8.564306950     -1.895426182 iso=    8.931490021
 54-C                     :       12.665765416     12.721822244      1.408640615    10.460295440     -3.363497686     -3.742368963 iso=    8.932076091
 55-C                     :        2.458696434      5.327859834     19.007159738     1.895307997     -4.116934044     -9.704515433 iso=    8.931238668
 56-C                     :        0.759683034      2.493236833     23.541942327    -0.000062713      0.000165850      8.189297812 iso=    8.931620731
 57-C                     :        2.458762677      5.327851387     19.007727571    -1.895344904     -4.117166821      9.704778155 iso=    8.931447212
 58-C                     :       12.720271382      1.408471262     12.664430644    -3.742197660    -13.447071103      2.221848453 iso=    8.931057763
 59-C                     :        0.759401712      2.493064802     23.541315755     0.000180036     -0.000039508     -8.188937452 iso=    8.931260757
                                  ------------------------------------------------------------------------------------------------
Sum polar. (a.u.)         :      535.884547437    535.878594420    535.886910183     0.002001347      0.003173665      0.001114918 iso=  535.883350680


Polarizability tensor calculation done in 16547.1 sec 

Maximum memory used throughout the entire PROP-calculation: 3832.9 MB

--------------------------------
SUGGESTED CITATIONS FOR THIS RUN
--------------------------------

Below you find a list of papers that are relevant to this ORCA run
We neither can nor want to force you to cite these papers, but we appreciate if you do
You receive ORCA, which is the product of decades of hard work by many enthusiastic individuals, for free
The only thing we kindly ask in return is that you cite our papers,
We deeply appreciate it, if you show your appreciation for ORCA by not just citing the generic ORCA reference.

Please note that relegating all ORCA citations to the supporting information does *not* help us.
SI sections are not indexed - citations you put there will not count into any citation statistics
But we need these citations in order to attract the funding resources that allow us to do what we are doing

Therefore, if you are a happy ORCA user, please consider citing a few of the papers listed below in the main body of your paper

In addition to the list printed below, the program has created the file POL_c60-Ih_p.bibtex that contains the list in bibtex format
You can import this file easily into all common literature databanks and citation aid programs


List of essential papers. We consider these as the minimum necessary citations

  1. Neese, F.
     Software update: the ORCA program system, version 6.0
     WIRES Comput. Molec. Sci. 2025 15(1), e70019
     doi.org/10.1002/wcms.7019

List of papers to cite with high priority. The work reported in these papers was absolutely
necessary for this run to complete.
Our perspective: the developers of density functionals and basis sets usually get cited in chemistry papers
Good! But without the algorithms to do something with them, the functionals or basis sets would not do anything.
Hence, in our opinion, the algorithm design and method developments papers are equally worthy of getting cited

  1. Neese, F.
     An improvement of the resolution of the identity approximation for the formation of the Coulomb matrix
     J. Comp. Chem. 2003 24(14), 1740-1747
     doi.org/10.1002/jcc.10318
  2. Neese, F.; Wennmohs, F.; Hansen, A.; Becker, U.
     Efficient, approximate and parallel Hartree-Fock and hybrid DFT calculations. A 'chain-of-spheres' algorithm for the Hartree-Fock exchange
     Chem. Phys. 2009 356(1-3), 98-109
     doi.org/10.1016/j.chemphys.2008.10.036
  3. Helmich-Paris, B.; de Souza, B.; Neese, F.; Izsák, R.
     An improved chain of spheres for exchange algorithm
     J. Chem. Phys. 2021 155(10), 104109
     doi.org/10.1063/5.0058766
  4. Neese, F.
     The SHARK Integral Generation and Digestion System
     J. Comp. Chem. 2022 44(3), 381
     doi.org/10.1002/jcc.26942

List of suggested additional citations. These are papers that are important in the 'surrounding' of 
of this run, or papers that preceded the highly important papers. If you like your results we are grateful for a citation.

  1. Izsak, R.; Neese, F.
     An overlap fitted chain of spheres exchange method
     J. Chem. Phys. 2011 135 , 144105
     doi.org/10.1063/1.3646921
  2. Izsak, R.; Hansen, A.; Neese, F.
     The resolution of identity and chain of spheres approximations for the LPNO-CCSD singles Fock term
     Molec. Phys. 2012 110 , 2413-2417
     doi.org/10.1080/00268976.2012.687466
  3. Neese, F.
     The ORCA program system
     WIRES Comput. Molec. Sci. 2012 2(1), 73-78
     doi.org/10.1002/wcms.81
  4. Izsak, R.; Neese, F.; Klopper, W.
     Robust fitting techniques in the chain of spheres approximation to the Fock exchange: The role of the complementary space
     J. Chem. Phys. 2013 139 , 
     doi.org/10.1063/1.4819264
  5. Neese, F.
     Software update: the ORCA program system, version 4.0
     WIRES Comput. Molec. Sci. 2018 8(1), 1-6
     doi.org/10.1002/wcms.1327
  6. Neese, F.; Wennmohs, F.; Becker, U.; Riplinger, C.
     The ORCA quantum chemistry program package
     J. Chem. Phys. 2020 152(22), 224108
     doi.org/10.1063/5.0004608
  7. Neese, F.
     Software update: The ORCA program system—Version 5.0
     WIRES Comput. Molec. Sci. 2022 12(1), e1606
     doi.org/10.1002/wcms.1606

List of optional additional citations

  1. Neese, F.
     Approximate second-order SCF convergence for spin unrestricted wavefunctions
     Chem. Phys. Lett. 2000 325(1-3), 93-98
     doi.org/10.1016/s0009-2614(00)00662-x

Timings for individual modules:

Sum of individual times          ...    21446.326 sec (= 357.439 min)
Startup calculation              ...       27.191 sec (=   0.453 min)   0.1 %
SCF iterations                   ...     4087.584 sec (=  68.126 min)  19.1 %
SCF Response                     ...      765.767 sec (=  12.763 min)   3.6 %
Property calculations            ...    16565.784 sec (= 276.096 min)  77.2 %
                             ****ORCA TERMINATED NORMALLY****
TOTAL RUN TIME: 0 days 5 hours 57 minutes 35 seconds 20 msec
